File written on  8Nov2023 at 09:56:29 

calc_only_A  :  F

begin real_lattice
   1.4349963   1.4349963   1.4349963
  -1.4349963   1.4349963   1.4349963
  -1.4349963  -1.4349963   1.4349963
end real_lattice

begin recip_lattice
   2.1892688   0.0000000   2.1892688
  -2.1892688   2.1892688   0.0000000
   0.0000000  -2.1892688   2.1892688
end recip_lattice

begin kpoints
   512
    0.00000000    0.00000000    0.00000000
    0.00000000    0.00000000    0.12500000
    0.00000000    0.00000000    0.25000000
    0.00000000    0.00000000    0.37500000
    0.00000000    0.00000000    0.50000000
    0.00000000    0.00000000    0.62500000
    0.00000000    0.00000000    0.75000000
    0.00000000    0.00000000    0.87500000
    0.00000000    0.12500000    0.00000000
    0.00000000    0.12500000    0.12500000
    0.00000000    0.12500000    0.25000000
    0.00000000    0.12500000    0.37500000
    0.00000000    0.12500000    0.50000000
    0.00000000    0.12500000    0.62500000
    0.00000000    0.12500000    0.75000000
    0.00000000    0.12500000    0.87500000
    0.00000000    0.25000000    0.00000000
    0.00000000    0.25000000    0.12500000
    0.00000000    0.25000000    0.25000000
    0.00000000    0.25000000    0.37500000
    0.00000000    0.25000000    0.50000000
    0.00000000    0.25000000    0.62500000
    0.00000000    0.25000000    0.75000000
    0.00000000    0.25000000    0.87500000
    0.00000000    0.37500000    0.00000000
    0.00000000    0.37500000    0.12500000
    0.00000000    0.37500000    0.25000000
    0.00000000    0.37500000    0.37500000
    0.00000000    0.37500000    0.50000000
    0.00000000    0.37500000    0.62500000
    0.00000000    0.37500000    0.75000000
    0.00000000    0.37500000    0.87500000
    0.00000000    0.50000000    0.00000000
    0.00000000    0.50000000    0.12500000
    0.00000000    0.50000000    0.25000000
    0.00000000    0.50000000    0.37500000
    0.00000000    0.50000000    0.50000000
    0.00000000    0.50000000    0.62500000
    0.00000000    0.50000000    0.75000000
    0.00000000    0.50000000    0.87500000
    0.00000000    0.62500000    0.00000000
    0.00000000    0.62500000    0.12500000
    0.00000000    0.62500000    0.25000000
    0.00000000    0.62500000    0.37500000
    0.00000000    0.62500000    0.50000000
    0.00000000    0.62500000    0.62500000
    0.00000000    0.62500000    0.75000000
    0.00000000    0.62500000    0.87500000
    0.00000000    0.75000000    0.00000000
    0.00000000    0.75000000    0.12500000
    0.00000000    0.75000000    0.25000000
    0.00000000    0.75000000    0.37500000
    0.00000000    0.75000000    0.50000000
    0.00000000    0.75000000    0.62500000
    0.00000000    0.75000000    0.75000000
    0.00000000    0.75000000    0.87500000
    0.00000000    0.87500000    0.00000000
    0.00000000    0.87500000    0.12500000
    0.00000000    0.87500000    0.25000000
    0.00000000    0.87500000    0.37500000
    0.00000000    0.87500000    0.50000000
    0.00000000    0.87500000    0.62500000
    0.00000000    0.87500000    0.75000000
    0.00000000    0.87500000    0.87500000
    0.12500000    0.00000000    0.00000000
    0.12500000    0.00000000    0.12500000
    0.12500000    0.00000000    0.25000000
    0.12500000    0.00000000    0.37500000
    0.12500000    0.00000000    0.50000000
    0.12500000    0.00000000    0.62500000
    0.12500000    0.00000000    0.75000000
    0.12500000    0.00000000    0.87500000
    0.12500000    0.12500000    0.00000000
    0.12500000    0.12500000    0.12500000
    0.12500000    0.12500000    0.25000000
    0.12500000    0.12500000    0.37500000
    0.12500000    0.12500000    0.50000000
    0.12500000    0.12500000    0.62500000
    0.12500000    0.12500000    0.75000000
    0.12500000    0.12500000    0.87500000
    0.12500000    0.25000000    0.00000000
    0.12500000    0.25000000    0.12500000
    0.12500000    0.25000000    0.25000000
    0.12500000    0.25000000    0.37500000
    0.12500000    0.25000000    0.50000000
    0.12500000    0.25000000    0.62500000
    0.12500000    0.25000000    0.75000000
    0.12500000    0.25000000    0.87500000
    0.12500000    0.37500000    0.00000000
    0.12500000    0.37500000    0.12500000
    0.12500000    0.37500000    0.25000000
    0.12500000    0.37500000    0.37500000
    0.12500000    0.37500000    0.50000000
    0.12500000    0.37500000    0.62500000
    0.12500000    0.37500000    0.75000000
    0.12500000    0.37500000    0.87500000
    0.12500000    0.50000000    0.00000000
    0.12500000    0.50000000    0.12500000
    0.12500000    0.50000000    0.25000000
    0.12500000    0.50000000    0.37500000
    0.12500000    0.50000000    0.50000000
    0.12500000    0.50000000    0.62500000
    0.12500000    0.50000000    0.75000000
    0.12500000    0.50000000    0.87500000
    0.12500000    0.62500000    0.00000000
    0.12500000    0.62500000    0.12500000
    0.12500000    0.62500000    0.25000000
    0.12500000    0.62500000    0.37500000
    0.12500000    0.62500000    0.50000000
    0.12500000    0.62500000    0.62500000
    0.12500000    0.62500000    0.75000000
    0.12500000    0.62500000    0.87500000
    0.12500000    0.75000000    0.00000000
    0.12500000    0.75000000    0.12500000
    0.12500000    0.75000000    0.25000000
    0.12500000    0.75000000    0.37500000
    0.12500000    0.75000000    0.50000000
    0.12500000    0.75000000    0.62500000
    0.12500000    0.75000000    0.75000000
    0.12500000    0.75000000    0.87500000
    0.12500000    0.87500000    0.00000000
    0.12500000    0.87500000    0.12500000
    0.12500000    0.87500000    0.25000000
    0.12500000    0.87500000    0.37500000
    0.12500000    0.87500000    0.50000000
    0.12500000    0.87500000    0.62500000
    0.12500000    0.87500000    0.75000000
    0.12500000    0.87500000    0.87500000
    0.25000000    0.00000000    0.00000000
    0.25000000    0.00000000    0.12500000
    0.25000000    0.00000000    0.25000000
    0.25000000    0.00000000    0.37500000
    0.25000000    0.00000000    0.50000000
    0.25000000    0.00000000    0.62500000
    0.25000000    0.00000000    0.75000000
    0.25000000    0.00000000    0.87500000
    0.25000000    0.12500000    0.00000000
    0.25000000    0.12500000    0.12500000
    0.25000000    0.12500000    0.25000000
    0.25000000    0.12500000    0.37500000
    0.25000000    0.12500000    0.50000000
    0.25000000    0.12500000    0.62500000
    0.25000000    0.12500000    0.75000000
    0.25000000    0.12500000    0.87500000
    0.25000000    0.25000000    0.00000000
    0.25000000    0.25000000    0.12500000
    0.25000000    0.25000000    0.25000000
    0.25000000    0.25000000    0.37500000
    0.25000000    0.25000000    0.50000000
    0.25000000    0.25000000    0.62500000
    0.25000000    0.25000000    0.75000000
    0.25000000    0.25000000    0.87500000
    0.25000000    0.37500000    0.00000000
    0.25000000    0.37500000    0.12500000
    0.25000000    0.37500000    0.25000000
    0.25000000    0.37500000    0.37500000
    0.25000000    0.37500000    0.50000000
    0.25000000    0.37500000    0.62500000
    0.25000000    0.37500000    0.75000000
    0.25000000    0.37500000    0.87500000
    0.25000000    0.50000000    0.00000000
    0.25000000    0.50000000    0.12500000
    0.25000000    0.50000000    0.25000000
    0.25000000    0.50000000    0.37500000
    0.25000000    0.50000000    0.50000000
    0.25000000    0.50000000    0.62500000
    0.25000000    0.50000000    0.75000000
    0.25000000    0.50000000    0.87500000
    0.25000000    0.62500000    0.00000000
    0.25000000    0.62500000    0.12500000
    0.25000000    0.62500000    0.25000000
    0.25000000    0.62500000    0.37500000
    0.25000000    0.62500000    0.50000000
    0.25000000    0.62500000    0.62500000
    0.25000000    0.62500000    0.75000000
    0.25000000    0.62500000    0.87500000
    0.25000000    0.75000000    0.00000000
    0.25000000    0.75000000    0.12500000
    0.25000000    0.75000000    0.25000000
    0.25000000    0.75000000    0.37500000
    0.25000000    0.75000000    0.50000000
    0.25000000    0.75000000    0.62500000
    0.25000000    0.75000000    0.75000000
    0.25000000    0.75000000    0.87500000
    0.25000000    0.87500000    0.00000000
    0.25000000    0.87500000    0.12500000
    0.25000000    0.87500000    0.25000000
    0.25000000    0.87500000    0.37500000
    0.25000000    0.87500000    0.50000000
    0.25000000    0.87500000    0.62500000
    0.25000000    0.87500000    0.75000000
    0.25000000    0.87500000    0.87500000
    0.37500000    0.00000000    0.00000000
    0.37500000    0.00000000    0.12500000
    0.37500000    0.00000000    0.25000000
    0.37500000    0.00000000    0.37500000
    0.37500000    0.00000000    0.50000000
    0.37500000    0.00000000    0.62500000
    0.37500000    0.00000000    0.75000000
    0.37500000    0.00000000    0.87500000
    0.37500000    0.12500000    0.00000000
    0.37500000    0.12500000    0.12500000
    0.37500000    0.12500000    0.25000000
    0.37500000    0.12500000    0.37500000
    0.37500000    0.12500000    0.50000000
    0.37500000    0.12500000    0.62500000
    0.37500000    0.12500000    0.75000000
    0.37500000    0.12500000    0.87500000
    0.37500000    0.25000000    0.00000000
    0.37500000    0.25000000    0.12500000
    0.37500000    0.25000000    0.25000000
    0.37500000    0.25000000    0.37500000
    0.37500000    0.25000000    0.50000000
    0.37500000    0.25000000    0.62500000
    0.37500000    0.25000000    0.75000000
    0.37500000    0.25000000    0.87500000
    0.37500000    0.37500000    0.00000000
    0.37500000    0.37500000    0.12500000
    0.37500000    0.37500000    0.25000000
    0.37500000    0.37500000    0.37500000
    0.37500000    0.37500000    0.50000000
    0.37500000    0.37500000    0.62500000
    0.37500000    0.37500000    0.75000000
    0.37500000    0.37500000    0.87500000
    0.37500000    0.50000000    0.00000000
    0.37500000    0.50000000    0.12500000
    0.37500000    0.50000000    0.25000000
    0.37500000    0.50000000    0.37500000
    0.37500000    0.50000000    0.50000000
    0.37500000    0.50000000    0.62500000
    0.37500000    0.50000000    0.75000000
    0.37500000    0.50000000    0.87500000
    0.37500000    0.62500000    0.00000000
    0.37500000    0.62500000    0.12500000
    0.37500000    0.62500000    0.25000000
    0.37500000    0.62500000    0.37500000
    0.37500000    0.62500000    0.50000000
    0.37500000    0.62500000    0.62500000
    0.37500000    0.62500000    0.75000000
    0.37500000    0.62500000    0.87500000
    0.37500000    0.75000000    0.00000000
    0.37500000    0.75000000    0.12500000
    0.37500000    0.75000000    0.25000000
    0.37500000    0.75000000    0.37500000
    0.37500000    0.75000000    0.50000000
    0.37500000    0.75000000    0.62500000
    0.37500000    0.75000000    0.75000000
    0.37500000    0.75000000    0.87500000
    0.37500000    0.87500000    0.00000000
    0.37500000    0.87500000    0.12500000
    0.37500000    0.87500000    0.25000000
    0.37500000    0.87500000    0.37500000
    0.37500000    0.87500000    0.50000000
    0.37500000    0.87500000    0.62500000
    0.37500000    0.87500000    0.75000000
    0.37500000    0.87500000    0.87500000
    0.50000000    0.00000000    0.00000000
    0.50000000    0.00000000    0.12500000
    0.50000000    0.00000000    0.25000000
    0.50000000    0.00000000    0.37500000
    0.50000000    0.00000000    0.50000000
    0.50000000    0.00000000    0.62500000
    0.50000000    0.00000000    0.75000000
    0.50000000    0.00000000    0.87500000
    0.50000000    0.12500000    0.00000000
    0.50000000    0.12500000    0.12500000
    0.50000000    0.12500000    0.25000000
    0.50000000    0.12500000    0.37500000
    0.50000000    0.12500000    0.50000000
    0.50000000    0.12500000    0.62500000
    0.50000000    0.12500000    0.75000000
    0.50000000    0.12500000    0.87500000
    0.50000000    0.25000000    0.00000000
    0.50000000    0.25000000    0.12500000
    0.50000000    0.25000000    0.25000000
    0.50000000    0.25000000    0.37500000
    0.50000000    0.25000000    0.50000000
    0.50000000    0.25000000    0.62500000
    0.50000000    0.25000000    0.75000000
    0.50000000    0.25000000    0.87500000
    0.50000000    0.37500000    0.00000000
    0.50000000    0.37500000    0.12500000
    0.50000000    0.37500000    0.25000000
    0.50000000    0.37500000    0.37500000
    0.50000000    0.37500000    0.50000000
    0.50000000    0.37500000    0.62500000
    0.50000000    0.37500000    0.75000000
    0.50000000    0.37500000    0.87500000
    0.50000000    0.50000000    0.00000000
    0.50000000    0.50000000    0.12500000
    0.50000000    0.50000000    0.25000000
    0.50000000    0.50000000    0.37500000
    0.50000000    0.50000000    0.50000000
    0.50000000    0.50000000    0.62500000
    0.50000000    0.50000000    0.75000000
    0.50000000    0.50000000    0.87500000
    0.50000000    0.62500000    0.00000000
    0.50000000    0.62500000    0.12500000
    0.50000000    0.62500000    0.25000000
    0.50000000    0.62500000    0.37500000
    0.50000000    0.62500000    0.50000000
    0.50000000    0.62500000    0.62500000
    0.50000000    0.62500000    0.75000000
    0.50000000    0.62500000    0.87500000
    0.50000000    0.75000000    0.00000000
    0.50000000    0.75000000    0.12500000
    0.50000000    0.75000000    0.25000000
    0.50000000    0.75000000    0.37500000
    0.50000000    0.75000000    0.50000000
    0.50000000    0.75000000    0.62500000
    0.50000000    0.75000000    0.75000000
    0.50000000    0.75000000    0.87500000
    0.50000000    0.87500000    0.00000000
    0.50000000    0.87500000    0.12500000
    0.50000000    0.87500000    0.25000000
    0.50000000    0.87500000    0.37500000
    0.50000000    0.87500000    0.50000000
    0.50000000    0.87500000    0.62500000
    0.50000000    0.87500000    0.75000000
    0.50000000    0.87500000    0.87500000
    0.62500000    0.00000000    0.00000000
    0.62500000    0.00000000    0.12500000
    0.62500000    0.00000000    0.25000000
    0.62500000    0.00000000    0.37500000
    0.62500000    0.00000000    0.50000000
    0.62500000    0.00000000    0.62500000
    0.62500000    0.00000000    0.75000000
    0.62500000    0.00000000    0.87500000
    0.62500000    0.12500000    0.00000000
    0.62500000    0.12500000    0.12500000
    0.62500000    0.12500000    0.25000000
    0.62500000    0.12500000    0.37500000
    0.62500000    0.12500000    0.50000000
    0.62500000    0.12500000    0.62500000
    0.62500000    0.12500000    0.75000000
    0.62500000    0.12500000    0.87500000
    0.62500000    0.25000000    0.00000000
    0.62500000    0.25000000    0.12500000
    0.62500000    0.25000000    0.25000000
    0.62500000    0.25000000    0.37500000
    0.62500000    0.25000000    0.50000000
    0.62500000    0.25000000    0.62500000
    0.62500000    0.25000000    0.75000000
    0.62500000    0.25000000    0.87500000
    0.62500000    0.37500000    0.00000000
    0.62500000    0.37500000    0.12500000
    0.62500000    0.37500000    0.25000000
    0.62500000    0.37500000    0.37500000
    0.62500000    0.37500000    0.50000000
    0.62500000    0.37500000    0.62500000
    0.62500000    0.37500000    0.75000000
    0.62500000    0.37500000    0.87500000
    0.62500000    0.50000000    0.00000000
    0.62500000    0.50000000    0.12500000
    0.62500000    0.50000000    0.25000000
    0.62500000    0.50000000    0.37500000
    0.62500000    0.50000000    0.50000000
    0.62500000    0.50000000    0.62500000
    0.62500000    0.50000000    0.75000000
    0.62500000    0.50000000    0.87500000
    0.62500000    0.62500000    0.00000000
    0.62500000    0.62500000    0.12500000
    0.62500000    0.62500000    0.25000000
    0.62500000    0.62500000    0.37500000
    0.62500000    0.62500000    0.50000000
    0.62500000    0.62500000    0.62500000
    0.62500000    0.62500000    0.75000000
    0.62500000    0.62500000    0.87500000
    0.62500000    0.75000000    0.00000000
    0.62500000    0.75000000    0.12500000
    0.62500000    0.75000000    0.25000000
    0.62500000    0.75000000    0.37500000
    0.62500000    0.75000000    0.50000000
    0.62500000    0.75000000    0.62500000
    0.62500000    0.75000000    0.75000000
    0.62500000    0.75000000    0.87500000
    0.62500000    0.87500000    0.00000000
    0.62500000    0.87500000    0.12500000
    0.62500000    0.87500000    0.25000000
    0.62500000    0.87500000    0.37500000
    0.62500000    0.87500000    0.50000000
    0.62500000    0.87500000    0.62500000
    0.62500000    0.87500000    0.75000000
    0.62500000    0.87500000    0.87500000
    0.75000000    0.00000000    0.00000000
    0.75000000    0.00000000    0.12500000
    0.75000000    0.00000000    0.25000000
    0.75000000    0.00000000    0.37500000
    0.75000000    0.00000000    0.50000000
    0.75000000    0.00000000    0.62500000
    0.75000000    0.00000000    0.75000000
    0.75000000    0.00000000    0.87500000
    0.75000000    0.12500000    0.00000000
    0.75000000    0.12500000    0.12500000
    0.75000000    0.12500000    0.25000000
    0.75000000    0.12500000    0.37500000
    0.75000000    0.12500000    0.50000000
    0.75000000    0.12500000    0.62500000
    0.75000000    0.12500000    0.75000000
    0.75000000    0.12500000    0.87500000
    0.75000000    0.25000000    0.00000000
    0.75000000    0.25000000    0.12500000
    0.75000000    0.25000000    0.25000000
    0.75000000    0.25000000    0.37500000
    0.75000000    0.25000000    0.50000000
    0.75000000    0.25000000    0.62500000
    0.75000000    0.25000000    0.75000000
    0.75000000    0.25000000    0.87500000
    0.75000000    0.37500000    0.00000000
    0.75000000    0.37500000    0.12500000
    0.75000000    0.37500000    0.25000000
    0.75000000    0.37500000    0.37500000
    0.75000000    0.37500000    0.50000000
    0.75000000    0.37500000    0.62500000
    0.75000000    0.37500000    0.75000000
    0.75000000    0.37500000    0.87500000
    0.75000000    0.50000000    0.00000000
    0.75000000    0.50000000    0.12500000
    0.75000000    0.50000000    0.25000000
    0.75000000    0.50000000    0.37500000
    0.75000000    0.50000000    0.50000000
    0.75000000    0.50000000    0.62500000
    0.75000000    0.50000000    0.75000000
    0.75000000    0.50000000    0.87500000
    0.75000000    0.62500000    0.00000000
    0.75000000    0.62500000    0.12500000
    0.75000000    0.62500000    0.25000000
    0.75000000    0.62500000    0.37500000
    0.75000000    0.62500000    0.50000000
    0.75000000    0.62500000    0.62500000
    0.75000000    0.62500000    0.75000000
    0.75000000    0.62500000    0.87500000
    0.75000000    0.75000000    0.00000000
    0.75000000    0.75000000    0.12500000
    0.75000000    0.75000000    0.25000000
    0.75000000    0.75000000    0.37500000
    0.75000000    0.75000000    0.50000000
    0.75000000    0.75000000    0.62500000
    0.75000000    0.75000000    0.75000000
    0.75000000    0.75000000    0.87500000
    0.75000000    0.87500000    0.00000000
    0.75000000    0.87500000    0.12500000
    0.75000000    0.87500000    0.25000000
    0.75000000    0.87500000    0.37500000
    0.75000000    0.87500000    0.50000000
    0.75000000    0.87500000    0.62500000
    0.75000000    0.87500000    0.75000000
    0.75000000    0.87500000    0.87500000
    0.87500000    0.00000000    0.00000000
    0.87500000    0.00000000    0.12500000
    0.87500000    0.00000000    0.25000000
    0.87500000    0.00000000    0.37500000
    0.87500000    0.00000000    0.50000000
    0.87500000    0.00000000    0.62500000
    0.87500000    0.00000000    0.75000000
    0.87500000    0.00000000    0.87500000
    0.87500000    0.12500000    0.00000000
    0.87500000    0.12500000    0.12500000
    0.87500000    0.12500000    0.25000000
    0.87500000    0.12500000    0.37500000
    0.87500000    0.12500000    0.50000000
    0.87500000    0.12500000    0.62500000
    0.87500000    0.12500000    0.75000000
    0.87500000    0.12500000    0.87500000
    0.87500000    0.25000000    0.00000000
    0.87500000    0.25000000    0.12500000
    0.87500000    0.25000000    0.25000000
    0.87500000    0.25000000    0.37500000
    0.87500000    0.25000000    0.50000000
    0.87500000    0.25000000    0.62500000
    0.87500000    0.25000000    0.75000000
    0.87500000    0.25000000    0.87500000
    0.87500000    0.37500000    0.00000000
    0.87500000    0.37500000    0.12500000
    0.87500000    0.37500000    0.25000000
    0.87500000    0.37500000    0.37500000
    0.87500000    0.37500000    0.50000000
    0.87500000    0.37500000    0.62500000
    0.87500000    0.37500000    0.75000000
    0.87500000    0.37500000    0.87500000
    0.87500000    0.50000000    0.00000000
    0.87500000    0.50000000    0.12500000
    0.87500000    0.50000000    0.25000000
    0.87500000    0.50000000    0.37500000
    0.87500000    0.50000000    0.50000000
    0.87500000    0.50000000    0.62500000
    0.87500000    0.50000000    0.75000000
    0.87500000    0.50000000    0.87500000
    0.87500000    0.62500000    0.00000000
    0.87500000    0.62500000    0.12500000
    0.87500000    0.62500000    0.25000000
    0.87500000    0.62500000    0.37500000
    0.87500000    0.62500000    0.50000000
    0.87500000    0.62500000    0.62500000
    0.87500000    0.62500000    0.75000000
    0.87500000    0.62500000    0.87500000
    0.87500000    0.75000000    0.00000000
    0.87500000    0.75000000    0.12500000
    0.87500000    0.75000000    0.25000000
    0.87500000    0.75000000    0.37500000
    0.87500000    0.75000000    0.50000000
    0.87500000    0.75000000    0.62500000
    0.87500000    0.75000000    0.75000000
    0.87500000    0.75000000    0.87500000
    0.87500000    0.87500000    0.00000000
    0.87500000    0.87500000    0.12500000
    0.87500000    0.87500000    0.25000000
    0.87500000    0.87500000    0.37500000
    0.87500000    0.87500000    0.50000000
    0.87500000    0.87500000    0.62500000
    0.87500000    0.87500000    0.75000000
    0.87500000    0.87500000    0.87500000
end kpoints

begin projections
     9
   0.00000    0.00000    0.00000     0  1  1
    0.0000000  0.0000000  1.0000000   1.0000000  0.0000000  0.0000000    1.00
   0.00000    0.00000    0.00000     1  1  1
    0.0000000  0.0000000  1.0000000   1.0000000  0.0000000  0.0000000    1.00
   0.00000    0.00000    0.00000     1  2  1
    0.0000000  0.0000000  1.0000000   1.0000000  0.0000000  0.0000000    1.00
   0.00000    0.00000    0.00000     1  3  1
    0.0000000  0.0000000  1.0000000   1.0000000  0.0000000  0.0000000    1.00
   0.00000    0.00000    0.00000     2  1  1
    0.0000000  0.0000000  1.0000000   1.0000000  0.0000000  0.0000000    1.00
   0.00000    0.00000    0.00000     2  2  1
    0.0000000  0.0000000  1.0000000   1.0000000  0.0000000  0.0000000    1.00
   0.00000    0.00000    0.00000     2  3  1
    0.0000000  0.0000000  1.0000000   1.0000000  0.0000000  0.0000000    1.00
   0.00000    0.00000    0.00000     2  4  1
    0.0000000  0.0000000  1.0000000   1.0000000  0.0000000  0.0000000    1.00
   0.00000    0.00000    0.00000     2  5  1
    0.0000000  0.0000000  1.0000000   1.0000000  0.0000000  0.0000000    1.00
end projections

begin nnkpts
  12
     1     2      0   0   0
     1     9      0   0   0
     1    10      0   0   0
     1    65      0   0   0
     1    73      0   0   0
     1     8      0   0  -1
     1    72      0   0  -1
     1    57      0  -1   0
     1    64      0  -1  -1
     1   449     -1   0   0
     1   450     -1   0   0
     1   505     -1  -1   0
     2     1      0   0   0
     2     3      0   0   0
     2    10      0   0   0
     2    11      0   0   0
     2    65      0   0   0
     2    66      0   0   0
     2    74      0   0   0
     2    57      0  -1   0
     2    58      0  -1   0
     2   450     -1   0   0
     2   451     -1   0   0
     2   506     -1  -1   0
     3     2      0   0   0
     3     4      0   0   0
     3    11      0   0   0
     3    12      0   0   0
     3    66      0   0   0
     3    67      0   0   0
     3    75      0   0   0
     3    58      0  -1   0
     3    59      0  -1   0
     3   451     -1   0   0
     3   452     -1   0   0
     3   507     -1  -1   0
     4     3      0   0   0
     4     5      0   0   0
     4    12      0   0   0
     4    13      0   0   0
     4    67      0   0   0
     4    68      0   0   0
     4    76      0   0   0
     4    59      0  -1   0
     4    60      0  -1   0
     4   452     -1   0   0
     4   453     -1   0   0
     4   508     -1  -1   0
     5     4      0   0   0
     5     6      0   0   0
     5    13      0   0   0
     5    14      0   0   0
     5    68      0   0   0
     5    69      0   0   0
     5    77      0   0   0
     5    60      0  -1   0
     5    61      0  -1   0
     5   453     -1   0   0
     5   454     -1   0   0
     5   509     -1  -1   0
     6     5      0   0   0
     6     7      0   0   0
     6    14      0   0   0
     6    15      0   0   0
     6    69      0   0   0
     6    70      0   0   0
     6    78      0   0   0
     6    61      0  -1   0
     6    62      0  -1   0
     6   454     -1   0   0
     6   455     -1   0   0
     6   510     -1  -1   0
     7     6      0   0   0
     7     8      0   0   0
     7    15      0   0   0
     7    16      0   0   0
     7    70      0   0   0
     7    71      0   0   0
     7    79      0   0   0
     7    62      0  -1   0
     7    63      0  -1   0
     7   455     -1   0   0
     7   456     -1   0   0
     7   511     -1  -1   0
     8     7      0   0   0
     8    16      0   0   0
     8    71      0   0   0
     8    72      0   0   0
     8    80      0   0   0
     8     1      0   0   1
     8     9      0   0   1
     8    63      0  -1   0
     8    64      0  -1   0
     8   449     -1   0   1
     8   456     -1   0   0
     8   512     -1  -1   0
     9     1      0   0   0
     9    10      0   0   0
     9    17      0   0   0
     9    18      0   0   0
     9    73      0   0   0
     9    81      0   0   0
     9     8      0   0  -1
     9    16      0   0  -1
     9    80      0   0  -1
     9   449     -1   0   0
     9   457     -1   0   0
     9   458     -1   0   0
    10     1      0   0   0
    10     2      0   0   0
    10     9      0   0   0
    10    11      0   0   0
    10    18      0   0   0
    10    19      0   0   0
    10    73      0   0   0
    10    74      0   0   0
    10    82      0   0   0
    10   450     -1   0   0
    10   458     -1   0   0
    10   459     -1   0   0
    11     2      0   0   0
    11     3      0   0   0
    11    10      0   0   0
    11    12      0   0   0
    11    19      0   0   0
    11    20      0   0   0
    11    74      0   0   0
    11    75      0   0   0
    11    83      0   0   0
    11   451     -1   0   0
    11   459     -1   0   0
    11   460     -1   0   0
    12     3      0   0   0
    12     4      0   0   0
    12    11      0   0   0
    12    13      0   0   0
    12    20      0   0   0
    12    21      0   0   0
    12    75      0   0   0
    12    76      0   0   0
    12    84      0   0   0
    12   452     -1   0   0
    12   460     -1   0   0
    12   461     -1   0   0
    13     4      0   0   0
    13     5      0   0   0
    13    12      0   0   0
    13    14      0   0   0
    13    21      0   0   0
    13    22      0   0   0
    13    76      0   0   0
    13    77      0   0   0
    13    85      0   0   0
    13   453     -1   0   0
    13   461     -1   0   0
    13   462     -1   0   0
    14     5      0   0   0
    14     6      0   0   0
    14    13      0   0   0
    14    15      0   0   0
    14    22      0   0   0
    14    23      0   0   0
    14    77      0   0   0
    14    78      0   0   0
    14    86      0   0   0
    14   454     -1   0   0
    14   462     -1   0   0
    14   463     -1   0   0
    15     6      0   0   0
    15     7      0   0   0
    15    14      0   0   0
    15    16      0   0   0
    15    23      0   0   0
    15    24      0   0   0
    15    78      0   0   0
    15    79      0   0   0
    15    87      0   0   0
    15   455     -1   0   0
    15   463     -1   0   0
    15   464     -1   0   0
    16     7      0   0   0
    16     8      0   0   0
    16    15      0   0   0
    16    24      0   0   0
    16    79      0   0   0
    16    80      0   0   0
    16    88      0   0   0
    16     9      0   0   1
    16    17      0   0   1
    16   457     -1   0   1
    16   456     -1   0   0
    16   464     -1   0   0
    17     9      0   0   0
    17    18      0   0   0
    17    25      0   0   0
    17    26      0   0   0
    17    81      0   0   0
    17    89      0   0   0
    17    16      0   0  -1
    17    24      0   0  -1
    17    88      0   0  -1
    17   457     -1   0   0
    17   465     -1   0   0
    17   466     -1   0   0
    18     9      0   0   0
    18    10      0   0   0
    18    17      0   0   0
    18    19      0   0   0
    18    26      0   0   0
    18    27      0   0   0
    18    81      0   0   0
    18    82      0   0   0
    18    90      0   0   0
    18   458     -1   0   0
    18   466     -1   0   0
    18   467     -1   0   0
    19    10      0   0   0
    19    11      0   0   0
    19    18      0   0   0
    19    20      0   0   0
    19    27      0   0   0
    19    28      0   0   0
    19    82      0   0   0
    19    83      0   0   0
    19    91      0   0   0
    19   459     -1   0   0
    19   467     -1   0   0
    19   468     -1   0   0
    20    11      0   0   0
    20    12      0   0   0
    20    19      0   0   0
    20    21      0   0   0
    20    28      0   0   0
    20    29      0   0   0
    20    83      0   0   0
    20    84      0   0   0
    20    92      0   0   0
    20   460     -1   0   0
    20   468     -1   0   0
    20   469     -1   0   0
    21    12      0   0   0
    21    13      0   0   0
    21    20      0   0   0
    21    22      0   0   0
    21    29      0   0   0
    21    30      0   0   0
    21    84      0   0   0
    21    85      0   0   0
    21    93      0   0   0
    21   461     -1   0   0
    21   469     -1   0   0
    21   470     -1   0   0
    22    13      0   0   0
    22    14      0   0   0
    22    21      0   0   0
    22    23      0   0   0
    22    30      0   0   0
    22    31      0   0   0
    22    85      0   0   0
    22    86      0   0   0
    22    94      0   0   0
    22   462     -1   0   0
    22   470     -1   0   0
    22   471     -1   0   0
    23    14      0   0   0
    23    15      0   0   0
    23    22      0   0   0
    23    24      0   0   0
    23    31      0   0   0
    23    32      0   0   0
    23    86      0   0   0
    23    87      0   0   0
    23    95      0   0   0
    23   463     -1   0   0
    23   471     -1   0   0
    23   472     -1   0   0
    24    15      0   0   0
    24    16      0   0   0
    24    23      0   0   0
    24    32      0   0   0
    24    87      0   0   0
    24    88      0   0   0
    24    96      0   0   0
    24    17      0   0   1
    24    25      0   0   1
    24   465     -1   0   1
    24   464     -1   0   0
    24   472     -1   0   0
    25    17      0   0   0
    25    26      0   0   0
    25    33      0   0   0
    25    34      0   0   0
    25    89      0   0   0
    25    97      0   0   0
    25    24      0   0  -1
    25    32      0   0  -1
    25    96      0   0  -1
    25   465     -1   0   0
    25   473     -1   0   0
    25   474     -1   0   0
    26    17      0   0   0
    26    18      0   0   0
    26    25      0   0   0
    26    27      0   0   0
    26    34      0   0   0
    26    35      0   0   0
    26    89      0   0   0
    26    90      0   0   0
    26    98      0   0   0
    26   466     -1   0   0
    26   474     -1   0   0
    26   475     -1   0   0
    27    18      0   0   0
    27    19      0   0   0
    27    26      0   0   0
    27    28      0   0   0
    27    35      0   0   0
    27    36      0   0   0
    27    90      0   0   0
    27    91      0   0   0
    27    99      0   0   0
    27   467     -1   0   0
    27   475     -1   0   0
    27   476     -1   0   0
    28    19      0   0   0
    28    20      0   0   0
    28    27      0   0   0
    28    29      0   0   0
    28    36      0   0   0
    28    37      0   0   0
    28    91      0   0   0
    28    92      0   0   0
    28   100      0   0   0
    28   468     -1   0   0
    28   476     -1   0   0
    28   477     -1   0   0
    29    20      0   0   0
    29    21      0   0   0
    29    28      0   0   0
    29    30      0   0   0
    29    37      0   0   0
    29    38      0   0   0
    29    92      0   0   0
    29    93      0   0   0
    29   101      0   0   0
    29   469     -1   0   0
    29   477     -1   0   0
    29   478     -1   0   0
    30    21      0   0   0
    30    22      0   0   0
    30    29      0   0   0
    30    31      0   0   0
    30    38      0   0   0
    30    39      0   0   0
    30    93      0   0   0
    30    94      0   0   0
    30   102      0   0   0
    30   470     -1   0   0
    30   478     -1   0   0
    30   479     -1   0   0
    31    22      0   0   0
    31    23      0   0   0
    31    30      0   0   0
    31    32      0   0   0
    31    39      0   0   0
    31    40      0   0   0
    31    94      0   0   0
    31    95      0   0   0
    31   103      0   0   0
    31   471     -1   0   0
    31   479     -1   0   0
    31   480     -1   0   0
    32    23      0   0   0
    32    24      0   0   0
    32    31      0   0   0
    32    40      0   0   0
    32    95      0   0   0
    32    96      0   0   0
    32   104      0   0   0
    32    25      0   0   1
    32    33      0   0   1
    32   473     -1   0   1
    32   472     -1   0   0
    32   480     -1   0   0
    33    25      0   0   0
    33    34      0   0   0
    33    41      0   0   0
    33    42      0   0   0
    33    97      0   0   0
    33   105      0   0   0
    33    32      0   0  -1
    33    40      0   0  -1
    33   104      0   0  -1
    33   473     -1   0   0
    33   481     -1   0   0
    33   482     -1   0   0
    34    25      0   0   0
    34    26      0   0   0
    34    33      0   0   0
    34    35      0   0   0
    34    42      0   0   0
    34    43      0   0   0
    34    97      0   0   0
    34    98      0   0   0
    34   106      0   0   0
    34   474     -1   0   0
    34   482     -1   0   0
    34   483     -1   0   0
    35    26      0   0   0
    35    27      0   0   0
    35    34      0   0   0
    35    36      0   0   0
    35    43      0   0   0
    35    44      0   0   0
    35    98      0   0   0
    35    99      0   0   0
    35   107      0   0   0
    35   475     -1   0   0
    35   483     -1   0   0
    35   484     -1   0   0
    36    27      0   0   0
    36    28      0   0   0
    36    35      0   0   0
    36    37      0   0   0
    36    44      0   0   0
    36    45      0   0   0
    36    99      0   0   0
    36   100      0   0   0
    36   108      0   0   0
    36   476     -1   0   0
    36   484     -1   0   0
    36   485     -1   0   0
    37    28      0   0   0
    37    29      0   0   0
    37    36      0   0   0
    37    38      0   0   0
    37    45      0   0   0
    37    46      0   0   0
    37   100      0   0   0
    37   101      0   0   0
    37   109      0   0   0
    37   477     -1   0   0
    37   485     -1   0   0
    37   486     -1   0   0
    38    29      0   0   0
    38    30      0   0   0
    38    37      0   0   0
    38    39      0   0   0
    38    46      0   0   0
    38    47      0   0   0
    38   101      0   0   0
    38   102      0   0   0
    38   110      0   0   0
    38   478     -1   0   0
    38   486     -1   0   0
    38   487     -1   0   0
    39    30      0   0   0
    39    31      0   0   0
    39    38      0   0   0
    39    40      0   0   0
    39    47      0   0   0
    39    48      0   0   0
    39   102      0   0   0
    39   103      0   0   0
    39   111      0   0   0
    39   479     -1   0   0
    39   487     -1   0   0
    39   488     -1   0   0
    40    31      0   0   0
    40    32      0   0   0
    40    39      0   0   0
    40    48      0   0   0
    40   103      0   0   0
    40   104      0   0   0
    40   112      0   0   0
    40    33      0   0   1
    40    41      0   0   1
    40   481     -1   0   1
    40   480     -1   0   0
    40   488     -1   0   0
    41    33      0   0   0
    41    42      0   0   0
    41    49      0   0   0
    41    50      0   0   0
    41   105      0   0   0
    41   113      0   0   0
    41    40      0   0  -1
    41    48      0   0  -1
    41   112      0   0  -1
    41   481     -1   0   0
    41   489     -1   0   0
    41   490     -1   0   0
    42    33      0   0   0
    42    34      0   0   0
    42    41      0   0   0
    42    43      0   0   0
    42    50      0   0   0
    42    51      0   0   0
    42   105      0   0   0
    42   106      0   0   0
    42   114      0   0   0
    42   482     -1   0   0
    42   490     -1   0   0
    42   491     -1   0   0
    43    34      0   0   0
    43    35      0   0   0
    43    42      0   0   0
    43    44      0   0   0
    43    51      0   0   0
    43    52      0   0   0
    43   106      0   0   0
    43   107      0   0   0
    43   115      0   0   0
    43   483     -1   0   0
    43   491     -1   0   0
    43   492     -1   0   0
    44    35      0   0   0
    44    36      0   0   0
    44    43      0   0   0
    44    45      0   0   0
    44    52      0   0   0
    44    53      0   0   0
    44   107      0   0   0
    44   108      0   0   0
    44   116      0   0   0
    44   484     -1   0   0
    44   492     -1   0   0
    44   493     -1   0   0
    45    36      0   0   0
    45    37      0   0   0
    45    44      0   0   0
    45    46      0   0   0
    45    53      0   0   0
    45    54      0   0   0
    45   108      0   0   0
    45   109      0   0   0
    45   117      0   0   0
    45   485     -1   0   0
    45   493     -1   0   0
    45   494     -1   0   0
    46    37      0   0   0
    46    38      0   0   0
    46    45      0   0   0
    46    47      0   0   0
    46    54      0   0   0
    46    55      0   0   0
    46   109      0   0   0
    46   110      0   0   0
    46   118      0   0   0
    46   486     -1   0   0
    46   494     -1   0   0
    46   495     -1   0   0
    47    38      0   0   0
    47    39      0   0   0
    47    46      0   0   0
    47    48      0   0   0
    47    55      0   0   0
    47    56      0   0   0
    47   110      0   0   0
    47   111      0   0   0
    47   119      0   0   0
    47   487     -1   0   0
    47   495     -1   0   0
    47   496     -1   0   0
    48    39      0   0   0
    48    40      0   0   0
    48    47      0   0   0
    48    56      0   0   0
    48   111      0   0   0
    48   112      0   0   0
    48   120      0   0   0
    48    41      0   0   1
    48    49      0   0   1
    48   489     -1   0   1
    48   488     -1   0   0
    48   496     -1   0   0
    49    41      0   0   0
    49    50      0   0   0
    49    57      0   0   0
    49    58      0   0   0
    49   113      0   0   0
    49   121      0   0   0
    49    48      0   0  -1
    49    56      0   0  -1
    49   120      0   0  -1
    49   489     -1   0   0
    49   497     -1   0   0
    49   498     -1   0   0
    50    41      0   0   0
    50    42      0   0   0
    50    49      0   0   0
    50    51      0   0   0
    50    58      0   0   0
    50    59      0   0   0
    50   113      0   0   0
    50   114      0   0   0
    50   122      0   0   0
    50   490     -1   0   0
    50   498     -1   0   0
    50   499     -1   0   0
    51    42      0   0   0
    51    43      0   0   0
    51    50      0   0   0
    51    52      0   0   0
    51    59      0   0   0
    51    60      0   0   0
    51   114      0   0   0
    51   115      0   0   0
    51   123      0   0   0
    51   491     -1   0   0
    51   499     -1   0   0
    51   500     -1   0   0
    52    43      0   0   0
    52    44      0   0   0
    52    51      0   0   0
    52    53      0   0   0
    52    60      0   0   0
    52    61      0   0   0
    52   115      0   0   0
    52   116      0   0   0
    52   124      0   0   0
    52   492     -1   0   0
    52   500     -1   0   0
    52   501     -1   0   0
    53    44      0   0   0
    53    45      0   0   0
    53    52      0   0   0
    53    54      0   0   0
    53    61      0   0   0
    53    62      0   0   0
    53   116      0   0   0
    53   117      0   0   0
    53   125      0   0   0
    53   493     -1   0   0
    53   501     -1   0   0
    53   502     -1   0   0
    54    45      0   0   0
    54    46      0   0   0
    54    53      0   0   0
    54    55      0   0   0
    54    62      0   0   0
    54    63      0   0   0
    54   117      0   0   0
    54   118      0   0   0
    54   126      0   0   0
    54   494     -1   0   0
    54   502     -1   0   0
    54   503     -1   0   0
    55    46      0   0   0
    55    47      0   0   0
    55    54      0   0   0
    55    56      0   0   0
    55    63      0   0   0
    55    64      0   0   0
    55   118      0   0   0
    55   119      0   0   0
    55   127      0   0   0
    55   495     -1   0   0
    55   503     -1   0   0
    55   504     -1   0   0
    56    47      0   0   0
    56    48      0   0   0
    56    55      0   0   0
    56    64      0   0   0
    56   119      0   0   0
    56   120      0   0   0
    56   128      0   0   0
    56    49      0   0   1
    56    57      0   0   1
    56   497     -1   0   1
    56   496     -1   0   0
    56   504     -1   0   0
    57    49      0   0   0
    57    58      0   0   0
    57   121      0   0   0
    57     1      0   1   0
    57     2      0   1   0
    57    65      0   1   0
    57    56      0   0  -1
    57    64      0   0  -1
    57   128      0   0  -1
    57   497     -1   0   0
    57   505     -1   0   0
    57   506     -1   0   0
    58    49      0   0   0
    58    50      0   0   0
    58    57      0   0   0
    58    59      0   0   0
    58   121      0   0   0
    58   122      0   0   0
    58     2      0   1   0
    58     3      0   1   0
    58    66      0   1   0
    58   498     -1   0   0
    58   506     -1   0   0
    58   507     -1   0   0
    59    50      0   0   0
    59    51      0   0   0
    59    58      0   0   0
    59    60      0   0   0
    59   122      0   0   0
    59   123      0   0   0
    59     3      0   1   0
    59     4      0   1   0
    59    67      0   1   0
    59   499     -1   0   0
    59   507     -1   0   0
    59   508     -1   0   0
    60    51      0   0   0
    60    52      0   0   0
    60    59      0   0   0
    60    61      0   0   0
    60   123      0   0   0
    60   124      0   0   0
    60     4      0   1   0
    60     5      0   1   0
    60    68      0   1   0
    60   500     -1   0   0
    60   508     -1   0   0
    60   509     -1   0   0
    61    52      0   0   0
    61    53      0   0   0
    61    60      0   0   0
    61    62      0   0   0
    61   124      0   0   0
    61   125      0   0   0
    61     5      0   1   0
    61     6      0   1   0
    61    69      0   1   0
    61   501     -1   0   0
    61   509     -1   0   0
    61   510     -1   0   0
    62    53      0   0   0
    62    54      0   0   0
    62    61      0   0   0
    62    63      0   0   0
    62   125      0   0   0
    62   126      0   0   0
    62     6      0   1   0
    62     7      0   1   0
    62    70      0   1   0
    62   502     -1   0   0
    62   510     -1   0   0
    62   511     -1   0   0
    63    54      0   0   0
    63    55      0   0   0
    63    62      0   0   0
    63    64      0   0   0
    63   126      0   0   0
    63   127      0   0   0
    63     7      0   1   0
    63     8      0   1   0
    63    71      0   1   0
    63   503     -1   0   0
    63   511     -1   0   0
    63   512     -1   0   0
    64    55      0   0   0
    64    56      0   0   0
    64    63      0   0   0
    64   127      0   0   0
    64   128      0   0   0
    64     1      0   1   1
    64     8      0   1   0
    64    72      0   1   0
    64    57      0   0   1
    64   505     -1   0   1
    64   504     -1   0   0
    64   512     -1   0   0
    65     1      0   0   0
    65     2      0   0   0
    65    66      0   0   0
    65    73      0   0   0
    65    74      0   0   0
    65   129      0   0   0
    65   137      0   0   0
    65    72      0   0  -1
    65   136      0   0  -1
    65    57      0  -1   0
    65   121      0  -1   0
    65   128      0  -1  -1
    66     2      0   0   0
    66     3      0   0   0
    66    65      0   0   0
    66    67      0   0   0
    66    74      0   0   0
    66    75      0   0   0
    66   129      0   0   0
    66   130      0   0   0
    66   138      0   0   0
    66    58      0  -1   0
    66   121      0  -1   0
    66   122      0  -1   0
    67     3      0   0   0
    67     4      0   0   0
    67    66      0   0   0
    67    68      0   0   0
    67    75      0   0   0
    67    76      0   0   0
    67   130      0   0   0
    67   131      0   0   0
    67   139      0   0   0
    67    59      0  -1   0
    67   122      0  -1   0
    67   123      0  -1   0
    68     4      0   0   0
    68     5      0   0   0
    68    67      0   0   0
    68    69      0   0   0
    68    76      0   0   0
    68    77      0   0   0
    68   131      0   0   0
    68   132      0   0   0
    68   140      0   0   0
    68    60      0  -1   0
    68   123      0  -1   0
    68   124      0  -1   0
    69     5      0   0   0
    69     6      0   0   0
    69    68      0   0   0
    69    70      0   0   0
    69    77      0   0   0
    69    78      0   0   0
    69   132      0   0   0
    69   133      0   0   0
    69   141      0   0   0
    69    61      0  -1   0
    69   124      0  -1   0
    69   125      0  -1   0
    70     6      0   0   0
    70     7      0   0   0
    70    69      0   0   0
    70    71      0   0   0
    70    78      0   0   0
    70    79      0   0   0
    70   133      0   0   0
    70   134      0   0   0
    70   142      0   0   0
    70    62      0  -1   0
    70   125      0  -1   0
    70   126      0  -1   0
    71     7      0   0   0
    71     8      0   0   0
    71    70      0   0   0
    71    72      0   0   0
    71    79      0   0   0
    71    80      0   0   0
    71   134      0   0   0
    71   135      0   0   0
    71   143      0   0   0
    71    63      0  -1   0
    71   126      0  -1   0
    71   127      0  -1   0
    72     8      0   0   0
    72    71      0   0   0
    72    80      0   0   0
    72   135      0   0   0
    72   136      0   0   0
    72   144      0   0   0
    72     1      0   0   1
    72    65      0   0   1
    72    73      0   0   1
    72    64      0  -1   0
    72   127      0  -1   0
    72   128      0  -1   0
    73     1      0   0   0
    73     9      0   0   0
    73    10      0   0   0
    73    65      0   0   0
    73    74      0   0   0
    73    81      0   0   0
    73    82      0   0   0
    73   137      0   0   0
    73   145      0   0   0
    73    72      0   0  -1
    73    80      0   0  -1
    73   144      0   0  -1
    74     2      0   0   0
    74    10      0   0   0
    74    11      0   0   0
    74    65      0   0   0
    74    66      0   0   0
    74    73      0   0   0
    74    75      0   0   0
    74    82      0   0   0
    74    83      0   0   0
    74   137      0   0   0
    74   138      0   0   0
    74   146      0   0   0
    75     3      0   0   0
    75    11      0   0   0
    75    12      0   0   0
    75    66      0   0   0
    75    67      0   0   0
    75    74      0   0   0
    75    76      0   0   0
    75    83      0   0   0
    75    84      0   0   0
    75   138      0   0   0
    75   139      0   0   0
    75   147      0   0   0
    76     4      0   0   0
    76    12      0   0   0
    76    13      0   0   0
    76    67      0   0   0
    76    68      0   0   0
    76    75      0   0   0
    76    77      0   0   0
    76    84      0   0   0
    76    85      0   0   0
    76   139      0   0   0
    76   140      0   0   0
    76   148      0   0   0
    77     5      0   0   0
    77    13      0   0   0
    77    14      0   0   0
    77    68      0   0   0
    77    69      0   0   0
    77    76      0   0   0
    77    78      0   0   0
    77    85      0   0   0
    77    86      0   0   0
    77   140      0   0   0
    77   141      0   0   0
    77   149      0   0   0
    78     6      0   0   0
    78    14      0   0   0
    78    15      0   0   0
    78    69      0   0   0
    78    70      0   0   0
    78    77      0   0   0
    78    79      0   0   0
    78    86      0   0   0
    78    87      0   0   0
    78   141      0   0   0
    78   142      0   0   0
    78   150      0   0   0
    79     7      0   0   0
    79    15      0   0   0
    79    16      0   0   0
    79    70      0   0   0
    79    71      0   0   0
    79    78      0   0   0
    79    80      0   0   0
    79    87      0   0   0
    79    88      0   0   0
    79   142      0   0   0
    79   143      0   0   0
    79   151      0   0   0
    80     8      0   0   0
    80    16      0   0   0
    80    71      0   0   0
    80    72      0   0   0
    80    79      0   0   0
    80    88      0   0   0
    80   143      0   0   0
    80   144      0   0   0
    80   152      0   0   0
    80     9      0   0   1
    80    73      0   0   1
    80    81      0   0   1
    81     9      0   0   0
    81    17      0   0   0
    81    18      0   0   0
    81    73      0   0   0
    81    82      0   0   0
    81    89      0   0   0
    81    90      0   0   0
    81   145      0   0   0
    81   153      0   0   0
    81    80      0   0  -1
    81    88      0   0  -1
    81   152      0   0  -1
    82    10      0   0   0
    82    18      0   0   0
    82    19      0   0   0
    82    73      0   0   0
    82    74      0   0   0
    82    81      0   0   0
    82    83      0   0   0
    82    90      0   0   0
    82    91      0   0   0
    82   145      0   0   0
    82   146      0   0   0
    82   154      0   0   0
    83    11      0   0   0
    83    19      0   0   0
    83    20      0   0   0
    83    74      0   0   0
    83    75      0   0   0
    83    82      0   0   0
    83    84      0   0   0
    83    91      0   0   0
    83    92      0   0   0
    83   146      0   0   0
    83   147      0   0   0
    83   155      0   0   0
    84    12      0   0   0
    84    20      0   0   0
    84    21      0   0   0
    84    75      0   0   0
    84    76      0   0   0
    84    83      0   0   0
    84    85      0   0   0
    84    92      0   0   0
    84    93      0   0   0
    84   147      0   0   0
    84   148      0   0   0
    84   156      0   0   0
    85    13      0   0   0
    85    21      0   0   0
    85    22      0   0   0
    85    76      0   0   0
    85    77      0   0   0
    85    84      0   0   0
    85    86      0   0   0
    85    93      0   0   0
    85    94      0   0   0
    85   148      0   0   0
    85   149      0   0   0
    85   157      0   0   0
    86    14      0   0   0
    86    22      0   0   0
    86    23      0   0   0
    86    77      0   0   0
    86    78      0   0   0
    86    85      0   0   0
    86    87      0   0   0
    86    94      0   0   0
    86    95      0   0   0
    86   149      0   0   0
    86   150      0   0   0
    86   158      0   0   0
    87    15      0   0   0
    87    23      0   0   0
    87    24      0   0   0
    87    78      0   0   0
    87    79      0   0   0
    87    86      0   0   0
    87    88      0   0   0
    87    95      0   0   0
    87    96      0   0   0
    87   150      0   0   0
    87   151      0   0   0
    87   159      0   0   0
    88    16      0   0   0
    88    24      0   0   0
    88    79      0   0   0
    88    80      0   0   0
    88    87      0   0   0
    88    96      0   0   0
    88   151      0   0   0
    88   152      0   0   0
    88   160      0   0   0
    88    17      0   0   1
    88    81      0   0   1
    88    89      0   0   1
    89    17      0   0   0
    89    25      0   0   0
    89    26      0   0   0
    89    81      0   0   0
    89    90      0   0   0
    89    97      0   0   0
    89    98      0   0   0
    89   153      0   0   0
    89   161      0   0   0
    89    88      0   0  -1
    89    96      0   0  -1
    89   160      0   0  -1
    90    18      0   0   0
    90    26      0   0   0
    90    27      0   0   0
    90    81      0   0   0
    90    82      0   0   0
    90    89      0   0   0
    90    91      0   0   0
    90    98      0   0   0
    90    99      0   0   0
    90   153      0   0   0
    90   154      0   0   0
    90   162      0   0   0
    91    19      0   0   0
    91    27      0   0   0
    91    28      0   0   0
    91    82      0   0   0
    91    83      0   0   0
    91    90      0   0   0
    91    92      0   0   0
    91    99      0   0   0
    91   100      0   0   0
    91   154      0   0   0
    91   155      0   0   0
    91   163      0   0   0
    92    20      0   0   0
    92    28      0   0   0
    92    29      0   0   0
    92    83      0   0   0
    92    84      0   0   0
    92    91      0   0   0
    92    93      0   0   0
    92   100      0   0   0
    92   101      0   0   0
    92   155      0   0   0
    92   156      0   0   0
    92   164      0   0   0
    93    21      0   0   0
    93    29      0   0   0
    93    30      0   0   0
    93    84      0   0   0
    93    85      0   0   0
    93    92      0   0   0
    93    94      0   0   0
    93   101      0   0   0
    93   102      0   0   0
    93   156      0   0   0
    93   157      0   0   0
    93   165      0   0   0
    94    22      0   0   0
    94    30      0   0   0
    94    31      0   0   0
    94    85      0   0   0
    94    86      0   0   0
    94    93      0   0   0
    94    95      0   0   0
    94   102      0   0   0
    94   103      0   0   0
    94   157      0   0   0
    94   158      0   0   0
    94   166      0   0   0
    95    23      0   0   0
    95    31      0   0   0
    95    32      0   0   0
    95    86      0   0   0
    95    87      0   0   0
    95    94      0   0   0
    95    96      0   0   0
    95   103      0   0   0
    95   104      0   0   0
    95   158      0   0   0
    95   159      0   0   0
    95   167      0   0   0
    96    24      0   0   0
    96    32      0   0   0
    96    87      0   0   0
    96    88      0   0   0
    96    95      0   0   0
    96   104      0   0   0
    96   159      0   0   0
    96   160      0   0   0
    96   168      0   0   0
    96    25      0   0   1
    96    89      0   0   1
    96    97      0   0   1
    97    25      0   0   0
    97    33      0   0   0
    97    34      0   0   0
    97    89      0   0   0
    97    98      0   0   0
    97   105      0   0   0
    97   106      0   0   0
    97   161      0   0   0
    97   169      0   0   0
    97    96      0   0  -1
    97   104      0   0  -1
    97   168      0   0  -1
    98    26      0   0   0
    98    34      0   0   0
    98    35      0   0   0
    98    89      0   0   0
    98    90      0   0   0
    98    97      0   0   0
    98    99      0   0   0
    98   106      0   0   0
    98   107      0   0   0
    98   161      0   0   0
    98   162      0   0   0
    98   170      0   0   0
    99    27      0   0   0
    99    35      0   0   0
    99    36      0   0   0
    99    90      0   0   0
    99    91      0   0   0
    99    98      0   0   0
    99   100      0   0   0
    99   107      0   0   0
    99   108      0   0   0
    99   162      0   0   0
    99   163      0   0   0
    99   171      0   0   0
   100    28      0   0   0
   100    36      0   0   0
   100    37      0   0   0
   100    91      0   0   0
   100    92      0   0   0
   100    99      0   0   0
   100   101      0   0   0
   100   108      0   0   0
   100   109      0   0   0
   100   163      0   0   0
   100   164      0   0   0
   100   172      0   0   0
   101    29      0   0   0
   101    37      0   0   0
   101    38      0   0   0
   101    92      0   0   0
   101    93      0   0   0
   101   100      0   0   0
   101   102      0   0   0
   101   109      0   0   0
   101   110      0   0   0
   101   164      0   0   0
   101   165      0   0   0
   101   173      0   0   0
   102    30      0   0   0
   102    38      0   0   0
   102    39      0   0   0
   102    93      0   0   0
   102    94      0   0   0
   102   101      0   0   0
   102   103      0   0   0
   102   110      0   0   0
   102   111      0   0   0
   102   165      0   0   0
   102   166      0   0   0
   102   174      0   0   0
   103    31      0   0   0
   103    39      0   0   0
   103    40      0   0   0
   103    94      0   0   0
   103    95      0   0   0
   103   102      0   0   0
   103   104      0   0   0
   103   111      0   0   0
   103   112      0   0   0
   103   166      0   0   0
   103   167      0   0   0
   103   175      0   0   0
   104    32      0   0   0
   104    40      0   0   0
   104    95      0   0   0
   104    96      0   0   0
   104   103      0   0   0
   104   112      0   0   0
   104   167      0   0   0
   104   168      0   0   0
   104   176      0   0   0
   104    33      0   0   1
   104    97      0   0   1
   104   105      0   0   1
   105    33      0   0   0
   105    41      0   0   0
   105    42      0   0   0
   105    97      0   0   0
   105   106      0   0   0
   105   113      0   0   0
   105   114      0   0   0
   105   169      0   0   0
   105   177      0   0   0
   105   104      0   0  -1
   105   112      0   0  -1
   105   176      0   0  -1
   106    34      0   0   0
   106    42      0   0   0
   106    43      0   0   0
   106    97      0   0   0
   106    98      0   0   0
   106   105      0   0   0
   106   107      0   0   0
   106   114      0   0   0
   106   115      0   0   0
   106   169      0   0   0
   106   170      0   0   0
   106   178      0   0   0
   107    35      0   0   0
   107    43      0   0   0
   107    44      0   0   0
   107    98      0   0   0
   107    99      0   0   0
   107   106      0   0   0
   107   108      0   0   0
   107   115      0   0   0
   107   116      0   0   0
   107   170      0   0   0
   107   171      0   0   0
   107   179      0   0   0
   108    36      0   0   0
   108    44      0   0   0
   108    45      0   0   0
   108    99      0   0   0
   108   100      0   0   0
   108   107      0   0   0
   108   109      0   0   0
   108   116      0   0   0
   108   117      0   0   0
   108   171      0   0   0
   108   172      0   0   0
   108   180      0   0   0
   109    37      0   0   0
   109    45      0   0   0
   109    46      0   0   0
   109   100      0   0   0
   109   101      0   0   0
   109   108      0   0   0
   109   110      0   0   0
   109   117      0   0   0
   109   118      0   0   0
   109   172      0   0   0
   109   173      0   0   0
   109   181      0   0   0
   110    38      0   0   0
   110    46      0   0   0
   110    47      0   0   0
   110   101      0   0   0
   110   102      0   0   0
   110   109      0   0   0
   110   111      0   0   0
   110   118      0   0   0
   110   119      0   0   0
   110   173      0   0   0
   110   174      0   0   0
   110   182      0   0   0
   111    39      0   0   0
   111    47      0   0   0
   111    48      0   0   0
   111   102      0   0   0
   111   103      0   0   0
   111   110      0   0   0
   111   112      0   0   0
   111   119      0   0   0
   111   120      0   0   0
   111   174      0   0   0
   111   175      0   0   0
   111   183      0   0   0
   112    40      0   0   0
   112    48      0   0   0
   112   103      0   0   0
   112   104      0   0   0
   112   111      0   0   0
   112   120      0   0   0
   112   175      0   0   0
   112   176      0   0   0
   112   184      0   0   0
   112    41      0   0   1
   112   105      0   0   1
   112   113      0   0   1
   113    41      0   0   0
   113    49      0   0   0
   113    50      0   0   0
   113   105      0   0   0
   113   114      0   0   0
   113   121      0   0   0
   113   122      0   0   0
   113   177      0   0   0
   113   185      0   0   0
   113   112      0   0  -1
   113   120      0   0  -1
   113   184      0   0  -1
   114    42      0   0   0
   114    50      0   0   0
   114    51      0   0   0
   114   105      0   0   0
   114   106      0   0   0
   114   113      0   0   0
   114   115      0   0   0
   114   122      0   0   0
   114   123      0   0   0
   114   177      0   0   0
   114   178      0   0   0
   114   186      0   0   0
   115    43      0   0   0
   115    51      0   0   0
   115    52      0   0   0
   115   106      0   0   0
   115   107      0   0   0
   115   114      0   0   0
   115   116      0   0   0
   115   123      0   0   0
   115   124      0   0   0
   115   178      0   0   0
   115   179      0   0   0
   115   187      0   0   0
   116    44      0   0   0
   116    52      0   0   0
   116    53      0   0   0
   116   107      0   0   0
   116   108      0   0   0
   116   115      0   0   0
   116   117      0   0   0
   116   124      0   0   0
   116   125      0   0   0
   116   179      0   0   0
   116   180      0   0   0
   116   188      0   0   0
   117    45      0   0   0
   117    53      0   0   0
   117    54      0   0   0
   117   108      0   0   0
   117   109      0   0   0
   117   116      0   0   0
   117   118      0   0   0
   117   125      0   0   0
   117   126      0   0   0
   117   180      0   0   0
   117   181      0   0   0
   117   189      0   0   0
   118    46      0   0   0
   118    54      0   0   0
   118    55      0   0   0
   118   109      0   0   0
   118   110      0   0   0
   118   117      0   0   0
   118   119      0   0   0
   118   126      0   0   0
   118   127      0   0   0
   118   181      0   0   0
   118   182      0   0   0
   118   190      0   0   0
   119    47      0   0   0
   119    55      0   0   0
   119    56      0   0   0
   119   110      0   0   0
   119   111      0   0   0
   119   118      0   0   0
   119   120      0   0   0
   119   127      0   0   0
   119   128      0   0   0
   119   182      0   0   0
   119   183      0   0   0
   119   191      0   0   0
   120    48      0   0   0
   120    56      0   0   0
   120   111      0   0   0
   120   112      0   0   0
   120   119      0   0   0
   120   128      0   0   0
   120   183      0   0   0
   120   184      0   0   0
   120   192      0   0   0
   120    49      0   0   1
   120   113      0   0   1
   120   121      0   0   1
   121    49      0   0   0
   121    57      0   0   0
   121    58      0   0   0
   121   113      0   0   0
   121   122      0   0   0
   121   185      0   0   0
   121    65      0   1   0
   121    66      0   1   0
   121   129      0   1   0
   121   120      0   0  -1
   121   128      0   0  -1
   121   192      0   0  -1
   122    50      0   0   0
   122    58      0   0   0
   122    59      0   0   0
   122   113      0   0   0
   122   114      0   0   0
   122   121      0   0   0
   122   123      0   0   0
   122   185      0   0   0
   122   186      0   0   0
   122    66      0   1   0
   122    67      0   1   0
   122   130      0   1   0
   123    51      0   0   0
   123    59      0   0   0
   123    60      0   0   0
   123   114      0   0   0
   123   115      0   0   0
   123   122      0   0   0
   123   124      0   0   0
   123   186      0   0   0
   123   187      0   0   0
   123    67      0   1   0
   123    68      0   1   0
   123   131      0   1   0
   124    52      0   0   0
   124    60      0   0   0
   124    61      0   0   0
   124   115      0   0   0
   124   116      0   0   0
   124   123      0   0   0
   124   125      0   0   0
   124   187      0   0   0
   124   188      0   0   0
   124    68      0   1   0
   124    69      0   1   0
   124   132      0   1   0
   125    53      0   0   0
   125    61      0   0   0
   125    62      0   0   0
   125   116      0   0   0
   125   117      0   0   0
   125   124      0   0   0
   125   126      0   0   0
   125   188      0   0   0
   125   189      0   0   0
   125    69      0   1   0
   125    70      0   1   0
   125   133      0   1   0
   126    54      0   0   0
   126    62      0   0   0
   126    63      0   0   0
   126   117      0   0   0
   126   118      0   0   0
   126   125      0   0   0
   126   127      0   0   0
   126   189      0   0   0
   126   190      0   0   0
   126    70      0   1   0
   126    71      0   1   0
   126   134      0   1   0
   127    55      0   0   0
   127    63      0   0   0
   127    64      0   0   0
   127   118      0   0   0
   127   119      0   0   0
   127   126      0   0   0
   127   128      0   0   0
   127   190      0   0   0
   127   191      0   0   0
   127    71      0   1   0
   127    72      0   1   0
   127   135      0   1   0
   128    56      0   0   0
   128    64      0   0   0
   128   119      0   0   0
   128   120      0   0   0
   128   127      0   0   0
   128   191      0   0   0
   128   192      0   0   0
   128    65      0   1   1
   128    72      0   1   0
   128   136      0   1   0
   128    57      0   0   1
   128   121      0   0   1
   129    65      0   0   0
   129    66      0   0   0
   129   130      0   0   0
   129   137      0   0   0
   129   138      0   0   0
   129   193      0   0   0
   129   201      0   0   0
   129   136      0   0  -1
   129   200      0   0  -1
   129   121      0  -1   0
   129   185      0  -1   0
   129   192      0  -1  -1
   130    66      0   0   0
   130    67      0   0   0
   130   129      0   0   0
   130   131      0   0   0
   130   138      0   0   0
   130   139      0   0   0
   130   193      0   0   0
   130   194      0   0   0
   130   202      0   0   0
   130   122      0  -1   0
   130   185      0  -1   0
   130   186      0  -1   0
   131    67      0   0   0
   131    68      0   0   0
   131   130      0   0   0
   131   132      0   0   0
   131   139      0   0   0
   131   140      0   0   0
   131   194      0   0   0
   131   195      0   0   0
   131   203      0   0   0
   131   123      0  -1   0
   131   186      0  -1   0
   131   187      0  -1   0
   132    68      0   0   0
   132    69      0   0   0
   132   131      0   0   0
   132   133      0   0   0
   132   140      0   0   0
   132   141      0   0   0
   132   195      0   0   0
   132   196      0   0   0
   132   204      0   0   0
   132   124      0  -1   0
   132   187      0  -1   0
   132   188      0  -1   0
   133    69      0   0   0
   133    70      0   0   0
   133   132      0   0   0
   133   134      0   0   0
   133   141      0   0   0
   133   142      0   0   0
   133   196      0   0   0
   133   197      0   0   0
   133   205      0   0   0
   133   125      0  -1   0
   133   188      0  -1   0
   133   189      0  -1   0
   134    70      0   0   0
   134    71      0   0   0
   134   133      0   0   0
   134   135      0   0   0
   134   142      0   0   0
   134   143      0   0   0
   134   197      0   0   0
   134   198      0   0   0
   134   206      0   0   0
   134   126      0  -1   0
   134   189      0  -1   0
   134   190      0  -1   0
   135    71      0   0   0
   135    72      0   0   0
   135   134      0   0   0
   135   136      0   0   0
   135   143      0   0   0
   135   144      0   0   0
   135   198      0   0   0
   135   199      0   0   0
   135   207      0   0   0
   135   127      0  -1   0
   135   190      0  -1   0
   135   191      0  -1   0
   136    72      0   0   0
   136   135      0   0   0
   136   144      0   0   0
   136   199      0   0   0
   136   200      0   0   0
   136   208      0   0   0
   136    65      0   0   1
   136   129      0   0   1
   136   137      0   0   1
   136   128      0  -1   0
   136   191      0  -1   0
   136   192      0  -1   0
   137    65      0   0   0
   137    73      0   0   0
   137    74      0   0   0
   137   129      0   0   0
   137   138      0   0   0
   137   145      0   0   0
   137   146      0   0   0
   137   201      0   0   0
   137   209      0   0   0
   137   136      0   0  -1
   137   144      0   0  -1
   137   208      0   0  -1
   138    66      0   0   0
   138    74      0   0   0
   138    75      0   0   0
   138   129      0   0   0
   138   130      0   0   0
   138   137      0   0   0
   138   139      0   0   0
   138   146      0   0   0
   138   147      0   0   0
   138   201      0   0   0
   138   202      0   0   0
   138   210      0   0   0
   139    67      0   0   0
   139    75      0   0   0
   139    76      0   0   0
   139   130      0   0   0
   139   131      0   0   0
   139   138      0   0   0
   139   140      0   0   0
   139   147      0   0   0
   139   148      0   0   0
   139   202      0   0   0
   139   203      0   0   0
   139   211      0   0   0
   140    68      0   0   0
   140    76      0   0   0
   140    77      0   0   0
   140   131      0   0   0
   140   132      0   0   0
   140   139      0   0   0
   140   141      0   0   0
   140   148      0   0   0
   140   149      0   0   0
   140   203      0   0   0
   140   204      0   0   0
   140   212      0   0   0
   141    69      0   0   0
   141    77      0   0   0
   141    78      0   0   0
   141   132      0   0   0
   141   133      0   0   0
   141   140      0   0   0
   141   142      0   0   0
   141   149      0   0   0
   141   150      0   0   0
   141   204      0   0   0
   141   205      0   0   0
   141   213      0   0   0
   142    70      0   0   0
   142    78      0   0   0
   142    79      0   0   0
   142   133      0   0   0
   142   134      0   0   0
   142   141      0   0   0
   142   143      0   0   0
   142   150      0   0   0
   142   151      0   0   0
   142   205      0   0   0
   142   206      0   0   0
   142   214      0   0   0
   143    71      0   0   0
   143    79      0   0   0
   143    80      0   0   0
   143   134      0   0   0
   143   135      0   0   0
   143   142      0   0   0
   143   144      0   0   0
   143   151      0   0   0
   143   152      0   0   0
   143   206      0   0   0
   143   207      0   0   0
   143   215      0   0   0
   144    72      0   0   0
   144    80      0   0   0
   144   135      0   0   0
   144   136      0   0   0
   144   143      0   0   0
   144   152      0   0   0
   144   207      0   0   0
   144   208      0   0   0
   144   216      0   0   0
   144    73      0   0   1
   144   137      0   0   1
   144   145      0   0   1
   145    73      0   0   0
   145    81      0   0   0
   145    82      0   0   0
   145   137      0   0   0
   145   146      0   0   0
   145   153      0   0   0
   145   154      0   0   0
   145   209      0   0   0
   145   217      0   0   0
   145   144      0   0  -1
   145   152      0   0  -1
   145   216      0   0  -1
   146    74      0   0   0
   146    82      0   0   0
   146    83      0   0   0
   146   137      0   0   0
   146   138      0   0   0
   146   145      0   0   0
   146   147      0   0   0
   146   154      0   0   0
   146   155      0   0   0
   146   209      0   0   0
   146   210      0   0   0
   146   218      0   0   0
   147    75      0   0   0
   147    83      0   0   0
   147    84      0   0   0
   147   138      0   0   0
   147   139      0   0   0
   147   146      0   0   0
   147   148      0   0   0
   147   155      0   0   0
   147   156      0   0   0
   147   210      0   0   0
   147   211      0   0   0
   147   219      0   0   0
   148    76      0   0   0
   148    84      0   0   0
   148    85      0   0   0
   148   139      0   0   0
   148   140      0   0   0
   148   147      0   0   0
   148   149      0   0   0
   148   156      0   0   0
   148   157      0   0   0
   148   211      0   0   0
   148   212      0   0   0
   148   220      0   0   0
   149    77      0   0   0
   149    85      0   0   0
   149    86      0   0   0
   149   140      0   0   0
   149   141      0   0   0
   149   148      0   0   0
   149   150      0   0   0
   149   157      0   0   0
   149   158      0   0   0
   149   212      0   0   0
   149   213      0   0   0
   149   221      0   0   0
   150    78      0   0   0
   150    86      0   0   0
   150    87      0   0   0
   150   141      0   0   0
   150   142      0   0   0
   150   149      0   0   0
   150   151      0   0   0
   150   158      0   0   0
   150   159      0   0   0
   150   213      0   0   0
   150   214      0   0   0
   150   222      0   0   0
   151    79      0   0   0
   151    87      0   0   0
   151    88      0   0   0
   151   142      0   0   0
   151   143      0   0   0
   151   150      0   0   0
   151   152      0   0   0
   151   159      0   0   0
   151   160      0   0   0
   151   214      0   0   0
   151   215      0   0   0
   151   223      0   0   0
   152    80      0   0   0
   152    88      0   0   0
   152   143      0   0   0
   152   144      0   0   0
   152   151      0   0   0
   152   160      0   0   0
   152   215      0   0   0
   152   216      0   0   0
   152   224      0   0   0
   152    81      0   0   1
   152   145      0   0   1
   152   153      0   0   1
   153    81      0   0   0
   153    89      0   0   0
   153    90      0   0   0
   153   145      0   0   0
   153   154      0   0   0
   153   161      0   0   0
   153   162      0   0   0
   153   217      0   0   0
   153   225      0   0   0
   153   152      0   0  -1
   153   160      0   0  -1
   153   224      0   0  -1
   154    82      0   0   0
   154    90      0   0   0
   154    91      0   0   0
   154   145      0   0   0
   154   146      0   0   0
   154   153      0   0   0
   154   155      0   0   0
   154   162      0   0   0
   154   163      0   0   0
   154   217      0   0   0
   154   218      0   0   0
   154   226      0   0   0
   155    83      0   0   0
   155    91      0   0   0
   155    92      0   0   0
   155   146      0   0   0
   155   147      0   0   0
   155   154      0   0   0
   155   156      0   0   0
   155   163      0   0   0
   155   164      0   0   0
   155   218      0   0   0
   155   219      0   0   0
   155   227      0   0   0
   156    84      0   0   0
   156    92      0   0   0
   156    93      0   0   0
   156   147      0   0   0
   156   148      0   0   0
   156   155      0   0   0
   156   157      0   0   0
   156   164      0   0   0
   156   165      0   0   0
   156   219      0   0   0
   156   220      0   0   0
   156   228      0   0   0
   157    85      0   0   0
   157    93      0   0   0
   157    94      0   0   0
   157   148      0   0   0
   157   149      0   0   0
   157   156      0   0   0
   157   158      0   0   0
   157   165      0   0   0
   157   166      0   0   0
   157   220      0   0   0
   157   221      0   0   0
   157   229      0   0   0
   158    86      0   0   0
   158    94      0   0   0
   158    95      0   0   0
   158   149      0   0   0
   158   150      0   0   0
   158   157      0   0   0
   158   159      0   0   0
   158   166      0   0   0
   158   167      0   0   0
   158   221      0   0   0
   158   222      0   0   0
   158   230      0   0   0
   159    87      0   0   0
   159    95      0   0   0
   159    96      0   0   0
   159   150      0   0   0
   159   151      0   0   0
   159   158      0   0   0
   159   160      0   0   0
   159   167      0   0   0
   159   168      0   0   0
   159   222      0   0   0
   159   223      0   0   0
   159   231      0   0   0
   160    88      0   0   0
   160    96      0   0   0
   160   151      0   0   0
   160   152      0   0   0
   160   159      0   0   0
   160   168      0   0   0
   160   223      0   0   0
   160   224      0   0   0
   160   232      0   0   0
   160    89      0   0   1
   160   153      0   0   1
   160   161      0   0   1
   161    89      0   0   0
   161    97      0   0   0
   161    98      0   0   0
   161   153      0   0   0
   161   162      0   0   0
   161   169      0   0   0
   161   170      0   0   0
   161   225      0   0   0
   161   233      0   0   0
   161   160      0   0  -1
   161   168      0   0  -1
   161   232      0   0  -1
   162    90      0   0   0
   162    98      0   0   0
   162    99      0   0   0
   162   153      0   0   0
   162   154      0   0   0
   162   161      0   0   0
   162   163      0   0   0
   162   170      0   0   0
   162   171      0   0   0
   162   225      0   0   0
   162   226      0   0   0
   162   234      0   0   0
   163    91      0   0   0
   163    99      0   0   0
   163   100      0   0   0
   163   154      0   0   0
   163   155      0   0   0
   163   162      0   0   0
   163   164      0   0   0
   163   171      0   0   0
   163   172      0   0   0
   163   226      0   0   0
   163   227      0   0   0
   163   235      0   0   0
   164    92      0   0   0
   164   100      0   0   0
   164   101      0   0   0
   164   155      0   0   0
   164   156      0   0   0
   164   163      0   0   0
   164   165      0   0   0
   164   172      0   0   0
   164   173      0   0   0
   164   227      0   0   0
   164   228      0   0   0
   164   236      0   0   0
   165    93      0   0   0
   165   101      0   0   0
   165   102      0   0   0
   165   156      0   0   0
   165   157      0   0   0
   165   164      0   0   0
   165   166      0   0   0
   165   173      0   0   0
   165   174      0   0   0
   165   228      0   0   0
   165   229      0   0   0
   165   237      0   0   0
   166    94      0   0   0
   166   102      0   0   0
   166   103      0   0   0
   166   157      0   0   0
   166   158      0   0   0
   166   165      0   0   0
   166   167      0   0   0
   166   174      0   0   0
   166   175      0   0   0
   166   229      0   0   0
   166   230      0   0   0
   166   238      0   0   0
   167    95      0   0   0
   167   103      0   0   0
   167   104      0   0   0
   167   158      0   0   0
   167   159      0   0   0
   167   166      0   0   0
   167   168      0   0   0
   167   175      0   0   0
   167   176      0   0   0
   167   230      0   0   0
   167   231      0   0   0
   167   239      0   0   0
   168    96      0   0   0
   168   104      0   0   0
   168   159      0   0   0
   168   160      0   0   0
   168   167      0   0   0
   168   176      0   0   0
   168   231      0   0   0
   168   232      0   0   0
   168   240      0   0   0
   168    97      0   0   1
   168   161      0   0   1
[...]
   453    13      1   0   0
   453   445      0  -1   0
   453   508      0  -1   0
   453   509      0  -1   0
   454   390      0   0   0
   454   391      0   0   0
   454   453      0   0   0
   454   455      0   0   0
   454   462      0   0   0
   454   463      0   0   0
   454     5      1   0   0
   454     6      1   0   0
   454    14      1   0   0
   454   446      0  -1   0
   454   509      0  -1   0
   454   510      0  -1   0
   455   391      0   0   0
   455   392      0   0   0
   455   454      0   0   0
   455   456      0   0   0
   455   463      0   0   0
   455   464      0   0   0
   455     6      1   0   0
   455     7      1   0   0
   455    15      1   0   0
   455   447      0  -1   0
   455   510      0  -1   0
   455   511      0  -1   0
   456   392      0   0   0
   456   455      0   0   0
   456   464      0   0   0
   456     7      1   0   0
   456     8      1   0   0
   456    16      1   0   0
   456   385      0   0   1
   456   449      0   0   1
   456   457      0   0   1
   456   448      0  -1   0
   456   511      0  -1   0
   456   512      0  -1   0
   457   385      0   0   0
   457   393      0   0   0
   457   394      0   0   0
   457   449      0   0   0
   457   458      0   0   0
   457   465      0   0   0
   457   466      0   0   0
   457     9      1   0   0
   457    17      1   0   0
   457    16      1   0  -1
   457   456      0   0  -1
   457   464      0   0  -1
   458   386      0   0   0
   458   394      0   0   0
   458   395      0   0   0
   458   449      0   0   0
   458   450      0   0   0
   458   457      0   0   0
   458   459      0   0   0
   458   466      0   0   0
   458   467      0   0   0
   458     9      1   0   0
   458    10      1   0   0
   458    18      1   0   0
   459   387      0   0   0
   459   395      0   0   0
   459   396      0   0   0
   459   450      0   0   0
   459   451      0   0   0
   459   458      0   0   0
   459   460      0   0   0
   459   467      0   0   0
   459   468      0   0   0
   459    10      1   0   0
   459    11      1   0   0
   459    19      1   0   0
   460   388      0   0   0
   460   396      0   0   0
   460   397      0   0   0
   460   451      0   0   0
   460   452      0   0   0
   460   459      0   0   0
   460   461      0   0   0
   460   468      0   0   0
   460   469      0   0   0
   460    11      1   0   0
   460    12      1   0   0
   460    20      1   0   0
   461   389      0   0   0
   461   397      0   0   0
   461   398      0   0   0
   461   452      0   0   0
   461   453      0   0   0
   461   460      0   0   0
   461   462      0   0   0
   461   469      0   0   0
   461   470      0   0   0
   461    12      1   0   0
   461    13      1   0   0
   461    21      1   0   0
   462   390      0   0   0
   462   398      0   0   0
   462   399      0   0   0
   462   453      0   0   0
   462   454      0   0   0
   462   461      0   0   0
   462   463      0   0   0
   462   470      0   0   0
   462   471      0   0   0
   462    13      1   0   0
   462    14      1   0   0
   462    22      1   0   0
   463   391      0   0   0
   463   399      0   0   0
   463   400      0   0   0
   463   454      0   0   0
   463   455      0   0   0
   463   462      0   0   0
   463   464      0   0   0
   463   471      0   0   0
   463   472      0   0   0
   463    14      1   0   0
   463    15      1   0   0
   463    23      1   0   0
   464   392      0   0   0
   464   400      0   0   0
   464   455      0   0   0
   464   456      0   0   0
   464   463      0   0   0
   464   472      0   0   0
   464    15      1   0   0
   464    16      1   0   0
   464    24      1   0   0
   464   393      0   0   1
   464   457      0   0   1
   464   465      0   0   1
   465   393      0   0   0
   465   401      0   0   0
   465   402      0   0   0
   465   457      0   0   0
   465   466      0   0   0
   465   473      0   0   0
   465   474      0   0   0
   465    17      1   0   0
   465    25      1   0   0
   465    24      1   0  -1
   465   464      0   0  -1
   465   472      0   0  -1
   466   394      0   0   0
   466   402      0   0   0
   466   403      0   0   0
   466   457      0   0   0
   466   458      0   0   0
   466   465      0   0   0
   466   467      0   0   0
   466   474      0   0   0
   466   475      0   0   0
   466    17      1   0   0
   466    18      1   0   0
   466    26      1   0   0
   467   395      0   0   0
   467   403      0   0   0
   467   404      0   0   0
   467   458      0   0   0
   467   459      0   0   0
   467   466      0   0   0
   467   468      0   0   0
   467   475      0   0   0
   467   476      0   0   0
   467    18      1   0   0
   467    19      1   0   0
   467    27      1   0   0
   468   396      0   0   0
   468   404      0   0   0
   468   405      0   0   0
   468   459      0   0   0
   468   460      0   0   0
   468   467      0   0   0
   468   469      0   0   0
   468   476      0   0   0
   468   477      0   0   0
   468    19      1   0   0
   468    20      1   0   0
   468    28      1   0   0
   469   397      0   0   0
   469   405      0   0   0
   469   406      0   0   0
   469   460      0   0   0
   469   461      0   0   0
   469   468      0   0   0
   469   470      0   0   0
   469   477      0   0   0
   469   478      0   0   0
   469    20      1   0   0
   469    21      1   0   0
   469    29      1   0   0
   470   398      0   0   0
   470   406      0   0   0
   470   407      0   0   0
   470   461      0   0   0
   470   462      0   0   0
   470   469      0   0   0
   470   471      0   0   0
   470   478      0   0   0
   470   479      0   0   0
   470    21      1   0   0
   470    22      1   0   0
   470    30      1   0   0
   471   399      0   0   0
   471   407      0   0   0
   471   408      0   0   0
   471   462      0   0   0
   471   463      0   0   0
   471   470      0   0   0
   471   472      0   0   0
   471   479      0   0   0
   471   480      0   0   0
   471    22      1   0   0
   471    23      1   0   0
   471    31      1   0   0
   472   400      0   0   0
   472   408      0   0   0
   472   463      0   0   0
   472   464      0   0   0
   472   471      0   0   0
   472   480      0   0   0
   472    23      1   0   0
   472    24      1   0   0
   472    32      1   0   0
   472   401      0   0   1
   472   465      0   0   1
   472   473      0   0   1
   473   401      0   0   0
   473   409      0   0   0
   473   410      0   0   0
   473   465      0   0   0
   473   474      0   0   0
   473   481      0   0   0
   473   482      0   0   0
   473    25      1   0   0
   473    33      1   0   0
   473    32      1   0  -1
   473   472      0   0  -1
   473   480      0   0  -1
   474   402      0   0   0
   474   410      0   0   0
   474   411      0   0   0
   474   465      0   0   0
   474   466      0   0   0
   474   473      0   0   0
   474   475      0   0   0
   474   482      0   0   0
   474   483      0   0   0
   474    25      1   0   0
   474    26      1   0   0
   474    34      1   0   0
   475   403      0   0   0
   475   411      0   0   0
   475   412      0   0   0
   475   466      0   0   0
   475   467      0   0   0
   475   474      0   0   0
   475   476      0   0   0
   475   483      0   0   0
   475   484      0   0   0
   475    26      1   0   0
   475    27      1   0   0
   475    35      1   0   0
   476   404      0   0   0
   476   412      0   0   0
   476   413      0   0   0
   476   467      0   0   0
   476   468      0   0   0
   476   475      0   0   0
   476   477      0   0   0
   476   484      0   0   0
   476   485      0   0   0
   476    27      1   0   0
   476    28      1   0   0
   476    36      1   0   0
   477   405      0   0   0
   477   413      0   0   0
   477   414      0   0   0
   477   468      0   0   0
   477   469      0   0   0
   477   476      0   0   0
   477   478      0   0   0
   477   485      0   0   0
   477   486      0   0   0
   477    28      1   0   0
   477    29      1   0   0
   477    37      1   0   0
   478   406      0   0   0
   478   414      0   0   0
   478   415      0   0   0
   478   469      0   0   0
   478   470      0   0   0
   478   477      0   0   0
   478   479      0   0   0
   478   486      0   0   0
   478   487      0   0   0
   478    29      1   0   0
   478    30      1   0   0
   478    38      1   0   0
   479   407      0   0   0
   479   415      0   0   0
   479   416      0   0   0
   479   470      0   0   0
   479   471      0   0   0
   479   478      0   0   0
   479   480      0   0   0
   479   487      0   0   0
   479   488      0   0   0
   479    30      1   0   0
   479    31      1   0   0
   479    39      1   0   0
   480   408      0   0   0
   480   416      0   0   0
   480   471      0   0   0
   480   472      0   0   0
   480   479      0   0   0
   480   488      0   0   0
   480    31      1   0   0
   480    32      1   0   0
   480    40      1   0   0
   480   409      0   0   1
   480   473      0   0   1
   480   481      0   0   1
   481   409      0   0   0
   481   417      0   0   0
   481   418      0   0   0
   481   473      0   0   0
   481   482      0   0   0
   481   489      0   0   0
   481   490      0   0   0
   481    33      1   0   0
   481    41      1   0   0
   481    40      1   0  -1
   481   480      0   0  -1
   481   488      0   0  -1
   482   410      0   0   0
   482   418      0   0   0
   482   419      0   0   0
   482   473      0   0   0
   482   474      0   0   0
   482   481      0   0   0
   482   483      0   0   0
   482   490      0   0   0
   482   491      0   0   0
   482    33      1   0   0
   482    34      1   0   0
   482    42      1   0   0
   483   411      0   0   0
   483   419      0   0   0
   483   420      0   0   0
   483   474      0   0   0
   483   475      0   0   0
   483   482      0   0   0
   483   484      0   0   0
   483   491      0   0   0
   483   492      0   0   0
   483    34      1   0   0
   483    35      1   0   0
   483    43      1   0   0
   484   412      0   0   0
   484   420      0   0   0
   484   421      0   0   0
   484   475      0   0   0
   484   476      0   0   0
   484   483      0   0   0
   484   485      0   0   0
   484   492      0   0   0
   484   493      0   0   0
   484    35      1   0   0
   484    36      1   0   0
   484    44      1   0   0
   485   413      0   0   0
   485   421      0   0   0
   485   422      0   0   0
   485   476      0   0   0
   485   477      0   0   0
   485   484      0   0   0
   485   486      0   0   0
   485   493      0   0   0
   485   494      0   0   0
   485    36      1   0   0
   485    37      1   0   0
   485    45      1   0   0
   486   414      0   0   0
   486   422      0   0   0
   486   423      0   0   0
   486   477      0   0   0
   486   478      0   0   0
   486   485      0   0   0
   486   487      0   0   0
   486   494      0   0   0
   486   495      0   0   0
   486    37      1   0   0
   486    38      1   0   0
   486    46      1   0   0
   487   415      0   0   0
   487   423      0   0   0
   487   424      0   0   0
   487   478      0   0   0
   487   479      0   0   0
   487   486      0   0   0
   487   488      0   0   0
   487   495      0   0   0
   487   496      0   0   0
   487    38      1   0   0
   487    39      1   0   0
   487    47      1   0   0
   488   416      0   0   0
   488   424      0   0   0
   488   479      0   0   0
   488   480      0   0   0
   488   487      0   0   0
   488   496      0   0   0
   488    39      1   0   0
   488    40      1   0   0
   488    48      1   0   0
   488   417      0   0   1
   488   481      0   0   1
   488   489      0   0   1
   489   417      0   0   0
   489   425      0   0   0
   489   426      0   0   0
   489   481      0   0   0
   489   490      0   0   0
   489   497      0   0   0
   489   498      0   0   0
   489    41      1   0   0
   489    49      1   0   0
   489    48      1   0  -1
   489   488      0   0  -1
   489   496      0   0  -1
   490   418      0   0   0
   490   426      0   0   0
   490   427      0   0   0
   490   481      0   0   0
   490   482      0   0   0
   490   489      0   0   0
   490   491      0   0   0
   490   498      0   0   0
   490   499      0   0   0
   490    41      1   0   0
   490    42      1   0   0
   490    50      1   0   0
   491   419      0   0   0
   491   427      0   0   0
   491   428      0   0   0
   491   482      0   0   0
   491   483      0   0   0
   491   490      0   0   0
   491   492      0   0   0
   491   499      0   0   0
   491   500      0   0   0
   491    42      1   0   0
   491    43      1   0   0
   491    51      1   0   0
   492   420      0   0   0
   492   428      0   0   0
   492   429      0   0   0
   492   483      0   0   0
   492   484      0   0   0
   492   491      0   0   0
   492   493      0   0   0
   492   500      0   0   0
   492   501      0   0   0
   492    43      1   0   0
   492    44      1   0   0
   492    52      1   0   0
   493   421      0   0   0
   493   429      0   0   0
   493   430      0   0   0
   493   484      0   0   0
   493   485      0   0   0
   493   492      0   0   0
   493   494      0   0   0
   493   501      0   0   0
   493   502      0   0   0
   493    44      1   0   0
   493    45      1   0   0
   493    53      1   0   0
   494   422      0   0   0
   494   430      0   0   0
   494   431      0   0   0
   494   485      0   0   0
   494   486      0   0   0
   494   493      0   0   0
   494   495      0   0   0
   494   502      0   0   0
   494   503      0   0   0
   494    45      1   0   0
   494    46      1   0   0
   494    54      1   0   0
   495   423      0   0   0
   495   431      0   0   0
   495   432      0   0   0
   495   486      0   0   0
   495   487      0   0   0
   495   494      0   0   0
   495   496      0   0   0
   495   503      0   0   0
   495   504      0   0   0
   495    46      1   0   0
   495    47      1   0   0
   495    55      1   0   0
   496   424      0   0   0
   496   432      0   0   0
   496   487      0   0   0
   496   488      0   0   0
   496   495      0   0   0
   496   504      0   0   0
   496    47      1   0   0
   496    48      1   0   0
   496    56      1   0   0
   496   425      0   0   1
   496   489      0   0   1
   496   497      0   0   1
   497   425      0   0   0
   497   433      0   0   0
   497   434      0   0   0
   497   489      0   0   0
   497   498      0   0   0
   497   505      0   0   0
   497   506      0   0   0
   497    49      1   0   0
   497    57      1   0   0
   497    56      1   0  -1
   497   496      0   0  -1
   497   504      0   0  -1
   498   426      0   0   0
   498   434      0   0   0
   498   435      0   0   0
   498   489      0   0   0
   498   490      0   0   0
   498   497      0   0   0
   498   499      0   0   0
   498   506      0   0   0
   498   507      0   0   0
   498    49      1   0   0
   498    50      1   0   0
   498    58      1   0   0
   499   427      0   0   0
   499   435      0   0   0
   499   436      0   0   0
   499   490      0   0   0
   499   491      0   0   0
   499   498      0   0   0
   499   500      0   0   0
   499   507      0   0   0
   499   508      0   0   0
   499    50      1   0   0
   499    51      1   0   0
   499    59      1   0   0
   500   428      0   0   0
   500   436      0   0   0
   500   437      0   0   0
   500   491      0   0   0
   500   492      0   0   0
   500   499      0   0   0
   500   501      0   0   0
   500   508      0   0   0
   500   509      0   0   0
   500    51      1   0   0
   500    52      1   0   0
   500    60      1   0   0
   501   429      0   0   0
   501   437      0   0   0
   501   438      0   0   0
   501   492      0   0   0
   501   493      0   0   0
   501   500      0   0   0
   501   502      0   0   0
   501   509      0   0   0
   501   510      0   0   0
   501    52      1   0   0
   501    53      1   0   0
   501    61      1   0   0
   502   430      0   0   0
   502   438      0   0   0
   502   439      0   0   0
   502   493      0   0   0
   502   494      0   0   0
   502   501      0   0   0
   502   503      0   0   0
   502   510      0   0   0
   502   511      0   0   0
   502    53      1   0   0
   502    54      1   0   0
   502    62      1   0   0
   503   431      0   0   0
   503   439      0   0   0
   503   440      0   0   0
   503   494      0   0   0
   503   495      0   0   0
   503   502      0   0   0
   503   504      0   0   0
   503   511      0   0   0
   503   512      0   0   0
   503    54      1   0   0
   503    55      1   0   0
   503    63      1   0   0
   504   432      0   0   0
   504   440      0   0   0
   504   495      0   0   0
   504   496      0   0   0
   504   503      0   0   0
   504   512      0   0   0
   504    55      1   0   0
   504    56      1   0   0
   504    64      1   0   0
   504   433      0   0   1
   504   497      0   0   1
   504   505      0   0   1
   505   433      0   0   0
   505   441      0   0   0
   505   442      0   0   0
   505   497      0   0   0
   505   506      0   0   0
   505     1      1   1   0
   505    57      1   0   0
   505    64      1   0  -1
   505   449      0   1   0
   505   450      0   1   0
   505   504      0   0  -1
   505   512      0   0  -1
   506   434      0   0   0
   506   442      0   0   0
   506   443      0   0   0
   506   497      0   0   0
   506   498      0   0   0
   506   505      0   0   0
   506   507      0   0   0
   506     2      1   1   0
   506    57      1   0   0
   506    58      1   0   0
   506   450      0   1   0
   506   451      0   1   0
   507   435      0   0   0
   507   443      0   0   0
   507   444      0   0   0
   507   498      0   0   0
   507   499      0   0   0
   507   506      0   0   0
   507   508      0   0   0
   507     3      1   1   0
   507    58      1   0   0
   507    59      1   0   0
   507   451      0   1   0
   507   452      0   1   0
   508   436      0   0   0
   508   444      0   0   0
   508   445      0   0   0
   508   499      0   0   0
   508   500      0   0   0
   508   507      0   0   0
   508   509      0   0   0
   508     4      1   1   0
   508    59      1   0   0
   508    60      1   0   0
   508   452      0   1   0
   508   453      0   1   0
   509   437      0   0   0
   509   445      0   0   0
   509   446      0   0   0
   509   500      0   0   0
   509   501      0   0   0
   509   508      0   0   0
   509   510      0   0   0
   509     5      1   1   0
   509    60      1   0   0
   509    61      1   0   0
   509   453      0   1   0
   509   454      0   1   0
   510   438      0   0   0
   510   446      0   0   0
   510   447      0   0   0
   510   501      0   0   0
   510   502      0   0   0
   510   509      0   0   0
   510   511      0   0   0
   510     6      1   1   0
   510    61      1   0   0
   510    62      1   0   0
   510   454      0   1   0
   510   455      0   1   0
   511   439      0   0   0
   511   447      0   0   0
   511   448      0   0   0
   511   502      0   0   0
   511   503      0   0   0
   511   510      0   0   0
   511   512      0   0   0
   511     7      1   1   0
   511    62      1   0   0
   511    63      1   0   0
   511   455      0   1   0
   511   456      0   1   0
   512   440      0   0   0
   512   448      0   0   0
   512   503      0   0   0
   512   504      0   0   0
   512   511      0   0   0
   512     8      1   1   0
   512    63      1   0   0
   512    64      1   0   0
   512   449      0   1   1
   512   456      0   1   0
   512   441      0   0   1
   512   505      0   0   1
end nnkpts

begin exclude_bands
   0
end exclude_bands
