 
             +---------------------------------------------------+
             |                                                   |
             |                   WANNIER90                       |
             |                                                   |
             +---------------------------------------------------+
             |                                                   |
             |        Welcome to the Maximally-Localized         |
             |        Generalized Wannier Functions code         |
             |            http://www.wannier.org                 |
             |                                                   |
             |                                                   |
             |  Wannier90 Developer Group:                       |
             |    Giovanni Pizzi    (EPFL)                       |
             |    Valerio Vitale    (Cambridge)                  |
             |    David Vanderbilt  (Rutgers University)         |
             |    Nicola Marzari    (EPFL)                       |
             |    Ivo Souza         (Universidad del Pais Vasco) |
             |    Arash A. Mostofi  (Imperial College London)    |
             |    Jonathan R. Yates (University of Oxford)       |
             |                                                   |
             |  For the full list of Wannier90 3.x authors,      |
             |  please check the code documentation and the      |
             |  README on the GitHub page of the code            |
             |                                                   |
             |                                                   |
             |  Please cite                                      |
             |                                                   |
             |  [ref] "Wannier90 as a community code:            |
             |        new features and applications",            |
             |        G. Pizzi et al., J. Phys. Cond. Matt. 32,  |
             |        165902 (2020).                             |
             |        http://doi.org/10.1088/1361-648X/ab51ff    |
             |                                                   |
             |  in any publications arising from the use of      |
             |  this code. For the method please cite            |
             |                                                   |
             |  [ref] "Maximally Localized Generalised Wannier   |
             |         Functions for Composite Energy Bands"     |
             |         N. Marzari and D. Vanderbilt              |
             |         Phys. Rev. B 56 12847 (1997)              |
             |                                                   |
             |  [ref] "Maximally Localized Wannier Functions     |
             |         for Entangled Energy Bands"               |
             |         I. Souza, N. Marzari and D. Vanderbilt    |
             |         Phys. Rev. B 65 035109 (2001)             |
             |                                                   |
             |                                                   |
             | Copyright (c) 1996-2020                           |
             |        The Wannier90 Developer Group and          |
             |        individual contributors                    |
             |                                                   |
             |      Release: 3.1.0        5th March    2020      |
             |                                                   |
             | This program is free software; you can            |
             | redistribute it and/or modify it under the terms  |
             | of the GNU General Public License as published by |
             | the Free Software Foundation; either version 2 of |
             | the License, or (at your option) any later version|
             |                                                   |
             | This program is distributed in the hope that it   |
             | will be useful, but WITHOUT ANY WARRANTY; without |
             | even the implied warranty of MERCHANTABILITY or   |
             | FITNESS FOR A PARTICULAR PURPOSE. See the GNU     |
             | General Public License for more details.          |
             |                                                   |
             | You should have received a copy of the GNU General|
             | Public License along with this program; if not,   |
             | write to the Free Software Foundation, Inc.,      |
             | 675 Mass Ave, Cambridge, MA 02139, USA.           |
             |                                                   |
             +---------------------------------------------------+
             |    Execution started on  8Nov2023 at 10:08:47     |
             +---------------------------------------------------+
 
 ******************************************************************************
 * -> Using CODATA 2006 constant values                                       *
 *    (http://physics.nist.gov/cuu/Constants/index.html)                      *
 * -> Using Bohr value from CODATA                                            *
 ******************************************************************************
 

 Running in serial (with serial executable)
 
                                    ------
                                    SYSTEM
                                    ------
 
                              Lattice Vectors (Ang)
                    a_1     1.434996   1.434996   1.434996
                    a_2    -1.434996   1.434996   1.434996
                    a_3    -1.434996  -1.434996   1.434996
 
                   Unit Cell Volume:      11.81986  (Ang^3)
 
                        Reciprocal-Space Vectors (Ang^-1)
                    b_1     2.189269   0.000000   2.189269
                    b_2    -2.189269   2.189269   0.000000
                    b_3     0.000000  -2.189269   2.189269
  
 *----------------------------------------------------------------------------*
 |   Site       Fractional Coordinate          Cartesian Coordinate (Ang)     |
 +----------------------------------------------------------------------------+
 | Fe   1   0.00000   0.00000   0.00000   |    0.00000   0.00000   0.00000    |
 *----------------------------------------------------------------------------*
                                ------------
                                K-POINT GRID
                                ------------
  
             Grid size =  8 x  8 x  8      Total points =  512
  
  
 *---------------------------------- MAIN ------------------------------------*
 |  Number of Wannier Functions               :                 9             |
 |  Number of Objective Wannier Functions     :                 9             |
 |  Number of input Bloch states              :                14             |
 |  Output verbosity (1=low, 5=high)          :                 1             |
 |  Timing Level (1=low, 5=high)              :                 1             |
 |  Optimisation (0=memory, 3=speed)          :                 3             |
 |  Length Unit                               :               Ang             |
 |  Post-processing setup (write *.nnkp)      :                 F             |
 |  Using Gamma-only branch of algorithms     :                 F             |
 *----------------------------------------------------------------------------*
 *------------------------------- WANNIERISE ---------------------------------*
 |  Total number of iterations                :               400             |
 |  Number of CG steps before reset           :                 5             |
 |  Trial step length for line search         :             2.000             |
 |  Convergence tolerence                     :         0.100E-09             |
 |  Convergence window                        :                -1             |
 |  Iterations between writing output         :                 1             |
 |  Iterations between backing up to disk     :               100             |
 |  Write r^2_nm to file                      :                 F             |
 |  Write xyz WF centres to file              :                 T             |
 |  Write on-site energies <0n|H|0n> to file  :                 F             |
 |  Use guiding centre to control phases      :                 F             |
 |  Use phases for initial projections        :                 F             |
 *----------------------------------------------------------------------------*
 *------------------------------- DISENTANGLE --------------------------------*
 |  Using band disentanglement                :                 T             |
 |  Total number of iterations                :               500             |
 |  Mixing ratio                              :             1.000             |
 |  Convergence tolerence                     :         1.000E-10             |
 |  Convergence window                        :                 3             |
 *----------------------------------------------------------------------------*
 *-------------------------------- PLOTTING ----------------------------------*
 |  Plotting interpolated bandstructure       :                 T             |
 |   Number of K-path sections                :                 9             |
 |   Divisions along first K-path section     :               100             |
 |   Output format                            :           gnuplot             |
 |   Output mode                              :               s-k             |
 *----------------------------------------------------------------------------*
 |   K-space path sections:                                                   |
 |    From: G       0.000  0.000  0.000     To: H       0.500 -0.500 -0.500   |
 |    From: H       0.500 -0.500 -0.500     To: P       0.750  0.250 -0.250   |
 |    From: P       0.750  0.250 -0.250     To: N       0.500  0.000 -0.500   |
 |    From: N       0.500  0.000 -0.500     To: G       0.000  0.000  0.000   |
 |    From: G       0.000  0.000  0.000     To: H       0.500  0.500  0.500   |
 |    From: H       0.500  0.500  0.500     To: N       0.500  0.000  0.000   |
 |    From: N       0.500  0.000  0.000     To: G       0.000  0.000  0.000   |
 |    From: G       0.000  0.000  0.000     To: P       0.750  0.250 -0.250   |
 |    From: P       0.750  0.250 -0.250     To: N       0.500  0.000  0.000   |
 *----------------------------------------------------------------------------*
 Time to read parameters        0.029 (sec)

 *---------------------------------- K-MESH ----------------------------------*
 +----------------------------------------------------------------------------+
 |                    Distance to Nearest-Neighbour Shells                    |
 |                    ------------------------------------                    |
 |          Shell             Distance (Ang^-1)          Multiplicity         |
 |          -----             -----------------          ------------         |
 |             1                   0.387012                     12            |
 |             2                   0.547317                      6            |
 |             3                   0.670324                     24            |
 |             4                   0.774023                     12            |
 |             5                   0.865384                     24            |
 |             6                   0.947981                      8            |
 |             7                   1.023937                     48            |
 |             8                   1.094634                      6            |
 |             9                   1.161035                     36            |
 |            10                   1.223838                     24            |
 |            11                   1.283573                     24            |
 |            12                   1.340648                     24            |
 |            13                   1.395391                     72            |
 |            14                   1.498890                     48            |
 |            15                   1.548047                     12            |
 |            16                   1.595690                     48            |
 |            17                   1.641952                     30            |
 |            18                   1.686945                     72            |
 |            19                   1.730769                     24            |
 |            20                   1.773510                     48            |
 |            21                   1.815246                     24            |
 |            22                   1.856043                     48            |
 |            23                   1.895962                      8            |
 |            24                   1.935059                     84            |
 |            25                   1.973380                     24            |
 |            26                   2.010972                     96            |
 |            27                   2.047873                     48            |
 |            28                   2.084122                     24            |
 |            29                   2.154790                     96            |
 |            30                   2.189269                      6            |
 |            31                   2.223213                     96            |
 |            32                   2.256647                     48            |
 |            33                   2.289592                     48            |
 |            34                   2.322070                     36            |
 |            35                   2.354100                    120            |
 |            36                   2.385700                     24            |
 +----------------------------------------------------------------------------+
 | The b-vectors are chosen automatically                                     |
 | The following shells are used:   1                                         |
 +----------------------------------------------------------------------------+
 |                        Shell   # Nearest-Neighbours                        |
 |                        -----   --------------------                        |
 |                          1              12                                 |
 +----------------------------------------------------------------------------+
 | Completeness relation is fully satisfied [Eq. (B1), PRB 56, 12847 (1997)]  |
 +----------------------------------------------------------------------------+
 |                  b_k Vectors (Ang^-1) and Weights (Ang^2)                  |
 |                  ----------------------------------------                  |
 |            No.         b_k(x)      b_k(y)      b_k(z)        w_b           |
 |            ---        --------------------------------     --------        |
 |             1         0.000000   -0.273659    0.273659     1.669136        |
 |             2        -0.273659    0.273659    0.000000     1.669136        |
 |             3        -0.273659    0.000000    0.273659     1.669136        |
 |             4         0.273659    0.000000    0.273659     1.669136        |
 |             5         0.000000    0.273659    0.273659     1.669136        |
 |             6         0.000000    0.273659   -0.273659     1.669136        |
 |             7         0.273659    0.273659    0.000000     1.669136        |
 |             8         0.273659   -0.273659    0.000000     1.669136        |
 |             9         0.273659    0.000000   -0.273659     1.669136        |
 |            10        -0.273659    0.000000   -0.273659     1.669136        |
 |            11        -0.273659   -0.273659    0.000000     1.669136        |
 |            12         0.000000   -0.273659   -0.273659     1.669136        |
 +----------------------------------------------------------------------------+
 |                           b_k Directions (Ang^-1)                          |
 |                           -----------------------                          |
 |            No.           x           y           z                         |
 |            ---        --------------------------------                     |
 |             1         0.000000   -0.273659    0.273659                     |
 |             2        -0.273659    0.273659    0.000000                     |
 |             3        -0.273659    0.000000    0.273659                     |
 |             4         0.273659    0.000000    0.273659                     |
 |             5         0.000000    0.273659    0.273659                     |
 |             6         0.273659    0.273659    0.000000                     |
 +----------------------------------------------------------------------------+
  
 Time to get kmesh              0.203 (sec)
 *============================================================================*
 |                              MEMORY ESTIMATE                               |
 |         Maximum RAM allocated during each phase of the calculation         |
 *============================================================================*
 |                        Disentanglement           29.03 Mb                  |
 |                            Wannierise:           21.16 Mb                  |
 |                          plot_wannier:           21.16 Mb                  |
 *----------------------------------------------------------------------------*
  
 Starting a new Wannier90 calculation ...


 Reading overlaps from Fe.mmn    :  Created on  8Nov2023 at  9:56:54

 Reading projections from Fe.amn :  Created on  8Nov2023 at  9:56:52

 Time to read overlaps          0.844 (sec)

 *------------------------------- DISENTANGLE --------------------------------*
 +----------------------------------------------------------------------------+
 |                              Energy  Windows                               |
 |                              ---------------                               |
 |                   Outer:    4.43504  to   70.00000  (eV)                   |
 |                   Inner:    4.43504  to   30.00000  (eV)                   |
 +----------------------------------------------------------------------------+
   Number of target bands to extract:    9

                   Unitarised projection of Wannier functions                  
                   ------------------------------------------                  
   A_mn = <psi_m|g_n> --> S = A.A^+ --> U = S^-1/2.A
   In dis_project... done
   Using an inner window (linner = T)
   In dis_proj_froz... done

                   Extraction of optimally-connected subspace                  
                   ------------------------------------------                  
 +---------------------------------------------------------------------+<-- DIS
 |  Iter     Omega_I(i-1)      Omega_I(i)      Delta (frac.)    Time   |<-- DIS
 +---------------------------------------------------------------------+<-- DIS
       1       7.64498607       6.68439484       1.437E-01      0.00    <-- DIS
       2       6.56070124       6.28793206       4.338E-02      0.03    <-- DIS
       3       6.23896380       6.12345525       1.886E-02      0.05    <-- DIS
       4       6.10022705       6.04382437       9.332E-03      0.08    <-- DIS
       5       6.03179936       6.00207404       4.953E-03      0.11    <-- DIS
       6       5.99549510       5.97903727       2.753E-03      0.13    <-- DIS
       7       5.97530306       5.96588560       1.579E-03      0.16    <-- DIS
       8       5.96371291       5.95820347       9.247E-04      0.19    <-- DIS
       9       5.95691820       5.95364707       5.494E-04      0.21    <-- DIS
      10       5.95287831       5.95091696       3.296E-04      0.24    <-- DIS
      11       5.95045375       5.94927002       1.990E-04      0.27    <-- DIS
      12       5.94898953       5.94827197       1.206E-04      0.29    <-- DIS
      13       5.94810157       5.94766530       7.335E-05      0.32    <-- DIS
      14       5.94756155       5.94729576       4.469E-05      0.35    <-- DIS
      15       5.94723249       5.94707034       2.727E-05      0.37    <-- DIS
      16       5.94703171       5.94693269       1.665E-05      0.40    <-- DIS
      17       5.94690909       5.94684858       1.018E-05      0.43    <-- DIS
      18       5.94683415       5.94679715       6.221E-06      0.45    <-- DIS
      19       5.94678832       5.94676569       3.805E-06      0.48    <-- DIS
      20       5.94676030       5.94674645       2.328E-06      0.51    <-- DIS
      21       5.94674315       5.94673468       1.425E-06      0.53    <-- DIS
      22       5.94673266       5.94672747       8.719E-07      0.56    <-- DIS
      23       5.94672623       5.94672306       5.337E-07      0.59    <-- DIS
      24       5.94672230       5.94672036       3.267E-07      0.61    <-- DIS
      25       5.94671990       5.94671871       2.000E-07      0.64    <-- DIS
      26       5.94671842       5.94671769       1.224E-07      0.67    <-- DIS
      27       5.94671752       5.94671707       7.495E-08      0.70    <-- DIS
      28       5.94671697       5.94671670       4.589E-08      0.72    <-- DIS
      29       5.94671663       5.94671646       2.810E-08      0.75    <-- DIS
      30       5.94671642       5.94671632       1.720E-08      0.78    <-- DIS
      31       5.94671630       5.94671623       1.053E-08      0.80    <-- DIS
      32       5.94671622       5.94671618       6.449E-09      0.83    <-- DIS
      33       5.94671617       5.94671615       3.949E-09      0.86    <-- DIS
      34       5.94671614       5.94671613       2.418E-09      0.88    <-- DIS
      35       5.94671612       5.94671612       1.480E-09      0.91    <-- DIS
      36       5.94671611       5.94671611       9.064E-10      0.93    <-- DIS
      37       5.94671611       5.94671610       5.550E-10      0.96    <-- DIS
      38       5.94671610       5.94671610       3.398E-10      0.99    <-- DIS
      39       5.94671610       5.94671610       2.081E-10      1.01    <-- DIS
      40       5.94671610       5.94671610       1.274E-10      1.04    <-- DIS
      41       5.94671610       5.94671610       7.800E-11      1.07    <-- DIS
      42       5.94671610       5.94671610       4.776E-11      1.09    <-- DIS
      43       5.94671610       5.94671610       2.925E-11      1.12    <-- DIS

             <<<      Delta < 1.000E-10  over  3 iterations     >>>
             <<< Disentanglement convergence criteria satisfied >>>

        Final Omega_I     5.94671610 (Ang^2)

 +----------------------------------------------------------------------------+

 Time to disentangle bands      1.205 (sec)

 Writing checkpoint file Fe.chk... done

 
 *------------------------------- WANNIERISE ---------------------------------*
 +--------------------------------------------------------------------+<-- CONV
 | Iter  Delta Spread     RMS Gradient      Spread (Ang^2)      Time  |<-- CONV
 +--------------------------------------------------------------------+<-- CONV
 
 ------------------------------------------------------------------------------
 Initial State
  WF centre and spread    1  (  0.000000,  0.000000, -0.000000 )     2.20183134
  WF centre and spread    2  (  0.000000, -0.000000,  0.000000 )     2.33550947
  WF centre and spread    3  ( -0.000000, -0.000000, -0.000000 )     2.33550935
  WF centre and spread    4  ( -0.000000,  0.000000, -0.000000 )     2.33550947
  WF centre and spread    5  (  0.000000,  0.000000,  0.000000 )     0.51416827
  WF centre and spread    6  ( -0.000000,  0.000000,  0.000000 )     0.50538100
  WF centre and spread    7  (  0.000000, -0.000000, -0.000000 )     0.50538100
  WF centre and spread    8  (  0.000000,  0.000000, -0.000000 )     0.51416827
  WF centre and spread    9  ( -0.000000, -0.000000, -0.000000 )     0.50538100
  Sum of centres and spreads ( -0.000000,  0.000000,  0.000000 )    11.75283917
 
      0     0.118E+02     0.0000000000       11.7528391734       1.20  <-- CONV
        O_D=      0.0000000 O_OD=      5.8061231 O_TOT=     11.7528392 <-- SPRD
 ------------------------------------------------------------------------------
 Cycle:      1
  WF centre and spread    1  (  0.000000, -0.000000, -0.000000 )     1.84549999
  WF centre and spread    2  (  0.000000, -0.000000,  0.000000 )     2.25781814
  WF centre and spread    3  ( -0.000000, -0.000000, -0.000000 )     2.25777018
  WF centre and spread    4  (  0.000000,  0.000000, -0.000000 )     2.25777032
  WF centre and spread    5  (  0.000000,  0.000000,  0.000000 )     0.47723795
  WF centre and spread    6  ( -0.000000,  0.000000, -0.000000 )     0.43662249
  WF centre and spread    7  (  0.000000, -0.000000, -0.000000 )     0.43662249
  WF centre and spread    8  (  0.000000,  0.000000, -0.000000 )     0.47723862
  WF centre and spread    9  ( -0.000000, -0.000000, -0.000000 )     0.43662164
  Sum of centres and spreads ( -0.000000,  0.000000,  0.000000 )    10.88320181
 
      1    -0.870E+00     0.2327403187       10.8832018094       1.24  <-- CONV
        O_D=      0.0000000 O_OD=      4.9364857 O_TOT=     10.8832018 <-- SPRD
 Delta: O_D=  0.3538051E-11 O_OD= -0.8696374E+00 O_TOT= -0.8696374E+00 <-- DLTA
 ------------------------------------------------------------------------------
 Cycle:      2
  WF centre and spread    1  (  0.000000, -0.000000, -0.000000 )     1.67225691
  WF centre and spread    2  (  0.000000, -0.000000,  0.000000 )     2.20935536
  WF centre and spread    3  ( -0.000000, -0.000000, -0.000000 )     2.20935335
  WF centre and spread    4  (  0.000000,  0.000000, -0.000000 )     2.20935347
  WF centre and spread    5  (  0.000000,  0.000000,  0.000000 )     0.46072278
  WF centre and spread    6  ( -0.000000,  0.000000, -0.000000 )     0.41565080
  WF centre and spread    7  ( -0.000000, -0.000000, -0.000000 )     0.41565080
  WF centre and spread    8  (  0.000000, -0.000000, -0.000000 )     0.46072120
  WF centre and spread    9  ( -0.000000, -0.000000, -0.000000 )     0.41565058
  Sum of centres and spreads ( -0.000000,  0.000000,  0.000000 )    10.46871525
 
      2    -0.414E+00     0.2772388851       10.4687152461       1.28  <-- CONV
        O_D=      0.0000000 O_OD=      4.5219991 O_TOT=     10.4687152 <-- SPRD
 Delta: O_D= -0.2759938E-11 O_OD= -0.4144866E+00 O_TOT= -0.4144866E+00 <-- DLTA
 ------------------------------------------------------------------------------
 Cycle:      3
  WF centre and spread    1  (  0.000000, -0.000000, -0.000000 )     1.64521286
  WF centre and spread    2  (  0.000000, -0.000000,  0.000000 )     2.19920963
  WF centre and spread    3  ( -0.000000, -0.000000, -0.000000 )     2.19921547
  WF centre and spread    4  (  0.000000,  0.000000, -0.000000 )     2.19921559
  WF centre and spread    5  (  0.000000, -0.000000, -0.000000 )     0.45371493
  WF centre and spread    6  ( -0.000000, -0.000000, -0.000000 )     0.41120422
  WF centre and spread    7  ( -0.000000, -0.000000, -0.000000 )     0.41120422
  WF centre and spread    8  (  0.000000, -0.000000, -0.000000 )     0.45371422
  WF centre and spread    9  ( -0.000000, -0.000000, -0.000000 )     0.41120461
  Sum of centres and spreads ( -0.000000,  0.000000,  0.000000 )    10.38389574
 
      3    -0.848E-01     0.1256167863       10.3838957431       1.32  <-- CONV
        O_D=      0.0000000 O_OD=      4.4371796 O_TOT=     10.3838957 <-- SPRD
 Delta: O_D= -0.5983530E-12 O_OD= -0.8481950E-01 O_TOT= -0.8481950E-01 <-- DLTA
 ------------------------------------------------------------------------------
 Cycle:      4
  WF centre and spread    1  (  0.000000, -0.000000, -0.000000 )     1.64283673
  WF centre and spread    2  (  0.000000, -0.000000,  0.000000 )     2.19596153
  WF centre and spread    3  ( -0.000000, -0.000000, -0.000000 )     2.19595945
  WF centre and spread    4  (  0.000000,  0.000000, -0.000000 )     2.19595957
  WF centre and spread    5  (  0.000000, -0.000000, -0.000000 )     0.45075300
  WF centre and spread    6  ( -0.000000, -0.000000, -0.000000 )     0.41048767
  WF centre and spread    7  ( -0.000000, -0.000000, -0.000000 )     0.41048767
  WF centre and spread    8  (  0.000000, -0.000000, -0.000000 )     0.45075305
  WF centre and spread    9  ( -0.000000, -0.000000, -0.000000 )     0.41048805
  Sum of centres and spreads ( -0.000000,  0.000000,  0.000000 )    10.36368673
 
      4    -0.202E-01     0.0595833708       10.3636867255       1.36  <-- CONV
        O_D=      0.0000000 O_OD=      4.4169706 O_TOT=     10.3636867 <-- SPRD
 Delta: O_D= -0.1946035E-12 O_OD= -0.2020902E-01 O_TOT= -0.2020902E-01 <-- DLTA
 ------------------------------------------------------------------------------
 Cycle:      5
  WF centre and spread    1  (  0.000000, -0.000000, -0.000000 )     1.64471027
  WF centre and spread    2  (  0.000000, -0.000000,  0.000000 )     2.19372816
  WF centre and spread    3  ( -0.000000, -0.000000, -0.000000 )     2.19372757
  WF centre and spread    4  (  0.000000,  0.000000, -0.000000 )     2.19372769
  WF centre and spread    5  (  0.000000, -0.000000, -0.000000 )     0.44834493
  WF centre and spread    6  ( -0.000000, -0.000000, -0.000000 )     0.41068979
  WF centre and spread    7  ( -0.000000, -0.000000, -0.000000 )     0.41068979
  WF centre and spread    8  (  0.000000, -0.000000, -0.000000 )     0.44834528
  WF centre and spread    9  ( -0.000000, -0.000000, -0.000000 )     0.41069003
  Sum of centres and spreads ( -0.000000,  0.000000,  0.000000 )    10.35465350
 
      5    -0.903E-02     0.0349438942       10.3546534950       1.40  <-- CONV
        O_D=      0.0000000 O_OD=      4.4079374 O_TOT=     10.3546535 <-- SPRD
 Delta: O_D= -0.1668341E-14 O_OD= -0.9033230E-02 O_TOT= -0.9033230E-02 <-- DLTA
 ------------------------------------------------------------------------------
 Cycle:      6
  WF centre and spread    1  (  0.000000, -0.000000, -0.000000 )     1.64658843
  WF centre and spread    2  (  0.000000, -0.000000,  0.000000 )     2.19228833
  WF centre and spread    3  ( -0.000000, -0.000000, -0.000000 )     2.19229444
  WF centre and spread    4  (  0.000000,  0.000000, -0.000000 )     2.19229455
  WF centre and spread    5  (  0.000000, -0.000000, -0.000000 )     0.44694100
  WF centre and spread    6  ( -0.000000, -0.000000, -0.000000 )     0.41104515
  WF centre and spread    7  ( -0.000000, -0.000000, -0.000000 )     0.41104514
  WF centre and spread    8  (  0.000000, -0.000000, -0.000000 )     0.44694123
  WF centre and spread    9  ( -0.000000, -0.000000, -0.000000 )     0.41104529
  Sum of centres and spreads ( -0.000000,  0.000000,  0.000000 )    10.35048356
 
      6    -0.417E-02     0.0247700317       10.3504835606       1.44  <-- CONV
        O_D=      0.0000000 O_OD=      4.4037675 O_TOT=     10.3504836 <-- SPRD
 Delta: O_D= -0.4733329E-13 O_OD= -0.4169934E-02 O_TOT= -0.4169934E-02 <-- DLTA
 ------------------------------------------------------------------------------
 Cycle:      7
  WF centre and spread    1  (  0.000000, -0.000000, -0.000000 )     1.64663675
  WF centre and spread    2  (  0.000000, -0.000000,  0.000000 )     2.19203452
  WF centre and spread    3  ( -0.000000, -0.000000, -0.000000 )     2.19204051
  WF centre and spread    4  (  0.000000,  0.000000, -0.000000 )     2.19204062
  WF centre and spread    5  (  0.000000, -0.000000, -0.000000 )     0.44667800
  WF centre and spread    6  ( -0.000000, -0.000000, -0.000000 )     0.41108527
  WF centre and spread    7  ( -0.000000, -0.000000, -0.000000 )     0.41108527
  WF centre and spread    8  (  0.000000, -0.000000, -0.000000 )     0.44667801
  WF centre and spread    9  ( -0.000000, -0.000000, -0.000000 )     0.41108541
  Sum of centres and spreads ( -0.000000,  0.000000,  0.000000 )    10.34936436
 
      7    -0.112E-02     0.0155763743       10.3493643601       1.48  <-- CONV
        O_D=      0.0000000 O_OD=      4.4026483 O_TOT=     10.3493644 <-- SPRD
 Delta: O_D= -0.3161972E-13 O_OD= -0.1119200E-02 O_TOT= -0.1119200E-02 <-- DLTA
 ------------------------------------------------------------------------------
 Cycle:      8
  WF centre and spread    1  (  0.000000, -0.000000, -0.000000 )     1.64694400
  WF centre and spread    2  (  0.000000, -0.000000,  0.000000 )     2.19183062
  WF centre and spread    3  ( -0.000000, -0.000000, -0.000000 )     2.19183678
  WF centre and spread    4  (  0.000000,  0.000000, -0.000000 )     2.19183690
  WF centre and spread    5  (  0.000000, -0.000000, -0.000000 )     0.44645590
  WF centre and spread    6  ( -0.000000, -0.000000, -0.000000 )     0.41117769
  WF centre and spread    7  ( -0.000000, -0.000000,  0.000000 )     0.41117769
  WF centre and spread    8  (  0.000000, -0.000000, -0.000000 )     0.44645574
  WF centre and spread    9  ( -0.000000,  0.000000, -0.000000 )     0.41117783
  Sum of centres and spreads ( -0.000000,  0.000000,  0.000000 )    10.34889314
 
      8    -0.471E-03     0.0086191983       10.3488931437       1.52  <-- CONV
        O_D=      0.0000000 O_OD=      4.4021770 O_TOT=     10.3488931 <-- SPRD
 Delta: O_D= -0.6209134E-13 O_OD= -0.4712164E-03 O_TOT= -0.4712164E-03 <-- DLTA
 ------------------------------------------------------------------------------
 Cycle:      9
  WF centre and spread    1  (  0.000000, -0.000000, -0.000000 )     1.64730302
  WF centre and spread    2  (  0.000000, -0.000000,  0.000000 )     2.19166537
  WF centre and spread    3  ( -0.000000, -0.000000, -0.000000 )     2.19167156
  WF centre and spread    4  (  0.000000,  0.000000, -0.000000 )     2.19167168
  WF centre and spread    5  (  0.000000, -0.000000, -0.000000 )     0.44633274
  WF centre and spread    6  ( -0.000000, -0.000000, -0.000000 )     0.41124781
  WF centre and spread    7  ( -0.000000, -0.000000,  0.000000 )     0.41124781
  WF centre and spread    8  (  0.000000, -0.000000, -0.000000 )     0.44633248
  WF centre and spread    9  ( -0.000000,  0.000000, -0.000000 )     0.41124793
  Sum of centres and spreads ( -0.000000,  0.000000,  0.000000 )    10.34872040
 
      9    -0.173E-03     0.0052127562       10.3487204005       1.56  <-- CONV
        O_D=      0.0000000 O_OD=      4.4020043 O_TOT=     10.3487204 <-- SPRD
 Delta: O_D= -0.2980340E-13 O_OD= -0.1727432E-03 O_TOT= -0.1727432E-03 <-- DLTA
 ------------------------------------------------------------------------------
 Cycle:     10
  WF centre and spread    1  (  0.000000, -0.000000, -0.000000 )     1.64763566
  WF centre and spread    2  (  0.000000, -0.000000,  0.000000 )     2.19154201
  WF centre and spread    3  ( -0.000000, -0.000000, -0.000000 )     2.19154867
  WF centre and spread    4  (  0.000000,  0.000000, -0.000000 )     2.19154879
  WF centre and spread    5  (  0.000000, -0.000000, -0.000000 )     0.44624916
  WF centre and spread    6  ( -0.000000, -0.000000, -0.000000 )     0.41129305
  WF centre and spread    7  ( -0.000000,  0.000000,  0.000000 )     0.41129305
  WF centre and spread    8  (  0.000000, -0.000000, -0.000000 )     0.44624894
  WF centre and spread    9  ( -0.000000,  0.000000, -0.000000 )     0.41129317
  Sum of centres and spreads ( -0.000000,  0.000000,  0.000000 )    10.34865249
 
     10    -0.679E-04     0.0032634147       10.3486524874       1.60  <-- CONV
        O_D=      0.0000000 O_OD=      4.4019364 O_TOT=     10.3486525 <-- SPRD
 Delta: O_D= -0.1980130E-13 O_OD= -0.6791309E-04 O_TOT= -0.6791309E-04 <-- DLTA
 ------------------------------------------------------------------------------
 Cycle:     11
  WF centre and spread    1  (  0.000000, -0.000000, -0.000000 )     1.64785925
  WF centre and spread    2  (  0.000000, -0.000000,  0.000000 )     2.19147733
  WF centre and spread    3  ( -0.000000, -0.000000, -0.000000 )     2.19148463
  WF centre and spread    4  (  0.000000,  0.000000, -0.000000 )     2.19148474
  WF centre and spread    5  (  0.000000, -0.000000, -0.000000 )     0.44618208
  WF centre and spread    6  ( -0.000000, -0.000000, -0.000000 )     0.41131997
  WF centre and spread    7  ( -0.000000,  0.000000,  0.000000 )     0.41131997
  WF centre and spread    8  (  0.000000, -0.000000, -0.000000 )     0.44618189
  WF centre and spread    9  ( -0.000000,  0.000000, -0.000000 )     0.41132010
  Sum of centres and spreads ( -0.000000,  0.000000,  0.000000 )    10.34862995
 
     11    -0.225E-04     0.0018773800       10.3486299513       1.63  <-- CONV
        O_D=      0.0000000 O_OD=      4.4019139 O_TOT=     10.3486300 <-- SPRD
 Delta: O_D= -0.5526860E-14 O_OD= -0.2253609E-04 O_TOT= -0.2253609E-04 <-- DLTA
 ------------------------------------------------------------------------------
 Cycle:     12
  WF centre and spread    1  (  0.000000, -0.000000, -0.000000 )     1.64793874
  WF centre and spread    2  (  0.000000, -0.000000,  0.000000 )     2.19145403
  WF centre and spread    3  ( -0.000000, -0.000000, -0.000000 )     2.19146183
  WF centre and spread    4  (  0.000000,  0.000000, -0.000000 )     2.19146195
  WF centre and spread    5  (  0.000000, -0.000000, -0.000000 )     0.44614750
  WF centre and spread    6  ( -0.000000, -0.000000, -0.000000 )     0.41133715
  WF centre and spread    7  ( -0.000000,  0.000000,  0.000000 )     0.41133715
  WF centre and spread    8  (  0.000000, -0.000000, -0.000000 )     0.44614735
  WF centre and spread    9  ( -0.000000,  0.000000, -0.000000 )     0.41133728
  Sum of centres and spreads ( -0.000000,  0.000000,  0.000000 )    10.34862298
 
     12    -0.697E-05     0.0011286322       10.3486229774       1.67  <-- CONV
        O_D=      0.0000000 O_OD=      4.4019069 O_TOT=     10.3486230 <-- SPRD
 Delta: O_D= -0.1321494E-13 O_OD= -0.6973921E-05 O_TOT= -0.6973921E-05 <-- DLTA
 ------------------------------------------------------------------------------
 Cycle:     13
  WF centre and spread    1  (  0.000000, -0.000000, -0.000000 )     1.64790117
  WF centre and spread    2  (  0.000000, -0.000000,  0.000000 )     2.19145610
  WF centre and spread    3  ( -0.000000, -0.000000, -0.000000 )     2.19146417
  WF centre and spread    4  (  0.000000,  0.000000, -0.000000 )     2.19146429
  WF centre and spread    5  (  0.000000, -0.000000, -0.000000 )     0.44614892
  WF centre and spread    6  ( -0.000000, -0.000000, -0.000000 )     0.41134602
  WF centre and spread    7  ( -0.000000,  0.000000,  0.000000 )     0.41134602
  WF centre and spread    8  (  0.000000, -0.000000, -0.000000 )     0.44614878
  WF centre and spread    9  ( -0.000000,  0.000000, -0.000000 )     0.41134616
  Sum of centres and spreads ( -0.000000,  0.000000,  0.000000 )    10.34862162
 
     13    -0.135E-05     0.0004748709       10.3486216238       1.71  <-- CONV
        O_D=      0.0000000 O_OD=      4.4019055 O_TOT=     10.3486216 <-- SPRD
 Delta: O_D=  0.1012165E-13 O_OD= -0.1353609E-05 O_TOT= -0.1353609E-05 <-- DLTA
 ------------------------------------------------------------------------------
 Cycle:     14
  WF centre and spread    1  (  0.000000, -0.000000, -0.000000 )     1.64785449
  WF centre and spread    2  (  0.000000, -0.000000,  0.000000 )     2.19145935
  WF centre and spread    3  ( -0.000000, -0.000000, -0.000000 )     2.19146786
  WF centre and spread    4  (  0.000000,  0.000000, -0.000000 )     2.19146798
  WF centre and spread    5  (  0.000000, -0.000000, -0.000000 )     0.44614872
  WF centre and spread    6  ( -0.000000, -0.000000, -0.000000 )     0.41135793
  WF centre and spread    7  ( -0.000000,  0.000000,  0.000000 )     0.41135793
  WF centre and spread    8  (  0.000000, -0.000000, -0.000000 )     0.44614860
  WF centre and spread    9  ( -0.000000,  0.000000, -0.000000 )     0.41135807
  Sum of centres and spreads ( -0.000000,  0.000000,  0.000000 )    10.34862094
 
     14    -0.684E-06     0.0003228978       10.3486209395       1.75  <-- CONV
        O_D=      0.0000000 O_OD=      4.4019048 O_TOT=     10.3486209 <-- SPRD
 Delta: O_D=  0.2286951E-14 O_OD= -0.6843121E-06 O_TOT= -0.6843121E-06 <-- DLTA
 ------------------------------------------------------------------------------
 Cycle:     15
  WF centre and spread    1  (  0.000000, -0.000000, -0.000000 )     1.64780748
  WF centre and spread    2  (  0.000000, -0.000000,  0.000000 )     2.19146131
  WF centre and spread    3  ( -0.000000, -0.000000, -0.000000 )     2.19147038
  WF centre and spread    4  (  0.000000,  0.000000, -0.000000 )     2.19147049
  WF centre and spread    5  (  0.000000, -0.000000, -0.000000 )     0.44614915
  WF centre and spread    6  ( -0.000000, -0.000000, -0.000000 )     0.41137086
  WF centre and spread    7  ( -0.000000,  0.000000,  0.000000 )     0.41137086
  WF centre and spread    8  (  0.000000, -0.000000, -0.000000 )     0.44614902
  WF centre and spread    9  ( -0.000000,  0.000000, -0.000000 )     0.41137101
  Sum of centres and spreads ( -0.000000,  0.000000,  0.000000 )    10.34862055
 
     15    -0.385E-06     0.0002449946       10.3486205547       1.79  <-- CONV
        O_D=      0.0000000 O_OD=      4.4019045 O_TOT=     10.3486206 <-- SPRD
 Delta: O_D=  0.1211300E-13 O_OD= -0.3847153E-06 O_TOT= -0.3847153E-06 <-- DLTA
 ------------------------------------------------------------------------------
 Cycle:     16
  WF centre and spread    1  (  0.000000, -0.000000, -0.000000 )     1.64777579
  WF centre and spread    2  (  0.000000, -0.000000,  0.000000 )     2.19146162
  WF centre and spread    3  ( -0.000000, -0.000000, -0.000000 )     2.19147107
  WF centre and spread    4  (  0.000000,  0.000000, -0.000000 )     2.19147119
  WF centre and spread    5  (  0.000000, -0.000000, -0.000000 )     0.44615115
  WF centre and spread    6  ( -0.000000, -0.000000, -0.000000 )     0.41137946
  WF centre and spread    7  ( -0.000000,  0.000000,  0.000000 )     0.41137946
  WF centre and spread    8  (  0.000000, -0.000000, -0.000000 )     0.44615103
  WF centre and spread    9  ( -0.000000,  0.000000, -0.000000 )     0.41137961
  Sum of centres and spreads ( -0.000000,  0.000000,  0.000000 )    10.34862038
 
     16    -0.178E-06     0.0002052009       10.3486203771       1.83  <-- CONV
        O_D=      0.0000000 O_OD=      4.4019043 O_TOT=     10.3486204 <-- SPRD
 Delta: O_D= -0.3710901E-14 O_OD= -0.1776788E-06 O_TOT= -0.1776788E-06 <-- DLTA
 ------------------------------------------------------------------------------
 Cycle:     17
  WF centre and spread    1  (  0.000000, -0.000000, -0.000000 )     1.64776349
  WF centre and spread    2  (  0.000000, -0.000000,  0.000000 )     2.19146157
  WF centre and spread    3  ( -0.000000, -0.000000, -0.000000 )     2.19147115
  WF centre and spread    4  (  0.000000,  0.000000, -0.000000 )     2.19147127
  WF centre and spread    5  (  0.000000, -0.000000, -0.000000 )     0.44615270
  WF centre and spread    6  ( -0.000000, -0.000000, -0.000000 )     0.41138246
  WF centre and spread    7  ( -0.000000,  0.000000,  0.000000 )     0.41138246
  WF centre and spread    8  (  0.000000, -0.000000, -0.000000 )     0.44615258
  WF centre and spread    9  ( -0.000000,  0.000000, -0.000000 )     0.41138262
  Sum of centres and spreads ( -0.000000,  0.000000,  0.000000 )    10.34862030
 
     17    -0.751E-07     0.0001377949       10.3486203019       1.87  <-- CONV
        O_D=      0.0000000 O_OD=      4.4019042 O_TOT=     10.3486203 <-- SPRD
 Delta: O_D= -0.1736298E-13 O_OD= -0.7511393E-07 O_TOT= -0.7511395E-07 <-- DLTA
 ------------------------------------------------------------------------------
 Cycle:     18
  WF centre and spread    1  (  0.000000, -0.000000, -0.000000 )     1.64776233
  WF centre and spread    2  (  0.000000, -0.000000,  0.000000 )     2.19146123
  WF centre and spread    3  ( -0.000000, -0.000000, -0.000000 )     2.19147083
  WF centre and spread    4  (  0.000000,  0.000000, -0.000000 )     2.19147095
  WF centre and spread    5  (  0.000000, -0.000000, -0.000000 )     0.44615314
  WF centre and spread    6  ( -0.000000, -0.000000, -0.000000 )     0.41138287
  WF centre and spread    7  ( -0.000000,  0.000000,  0.000000 )     0.41138287
  WF centre and spread    8  (  0.000000, -0.000000, -0.000000 )     0.44615302
  WF centre and spread    9  ( -0.000000,  0.000000, -0.000000 )     0.41138304
  Sum of centres and spreads ( -0.000000,  0.000000,  0.000000 )    10.34862027
 
     18    -0.329E-07     0.0000767989       10.3486202690       1.91  <-- CONV
        O_D=      0.0000000 O_OD=      4.4019042 O_TOT=     10.3486203 <-- SPRD
 Delta: O_D= -0.9526481E-14 O_OD= -0.3292259E-07 O_TOT= -0.3292260E-07 <-- DLTA
 ------------------------------------------------------------------------------
 Cycle:     19
  WF centre and spread    1  (  0.000000, -0.000000, -0.000000 )     1.64777636
  WF centre and spread    2  (  0.000000, -0.000000,  0.000000 )     2.19145922
  WF centre and spread    3  ( -0.000001, -0.000000, -0.000000 )     2.19146878
  WF centre and spread    4  (  0.000000,  0.000000, -0.000000 )     2.19146890
  WF centre and spread    5  (  0.000000, -0.000000, -0.000000 )     0.44615234
  WF centre and spread    6  ( -0.000000, -0.000000, -0.000000 )     0.41138076
  WF centre and spread    7  (  0.000000,  0.000000,  0.000000 )     0.41138076
  WF centre and spread    8  (  0.000000, -0.000000, -0.000000 )     0.44615222
  WF centre and spread    9  ( -0.000000,  0.000000, -0.000000 )     0.41138093
  Sum of centres and spreads ( -0.000000,  0.000000,  0.000000 )    10.34862027
 
     19    -0.448E-09     0.0000543333       10.3486202686       1.95  <-- CONV
        O_D=      0.0000000 O_OD=      4.4019042 O_TOT=     10.3486203 <-- SPRD
 Delta: O_D=  0.2254895E-13 O_OD= -0.4480158E-09 O_TOT= -0.4479936E-09 <-- DLTA
 ------------------------------------------------------------------------------
 Cycle:     20
  WF centre and spread    1  (  0.000000, -0.000000, -0.000000 )     1.64777732
  WF centre and spread    2  (  0.000000, -0.000000,  0.000000 )     2.19145938
  WF centre and spread    3  ( -0.000001, -0.000000, -0.000000 )     2.19146894
  WF centre and spread    4  (  0.000000,  0.000001, -0.000000 )     2.19146906
  WF centre and spread    5  (  0.000000, -0.000000, -0.000000 )     0.44615229
  WF centre and spread    6  ( -0.000000, -0.000000, -0.000000 )     0.41138030
  WF centre and spread    7  (  0.000000,  0.000000,  0.000000 )     0.41138030
  WF centre and spread    8  (  0.000000, -0.000000, -0.000000 )     0.44615216
  WF centre and spread    9  ( -0.000000,  0.000000, -0.000000 )     0.41138047
  Sum of centres and spreads ( -0.000000,  0.000000,  0.000000 )    10.34862020
 
     20    -0.660E-07     0.0001334997       10.3486202026       1.98  <-- CONV
        O_D=      0.0000000 O_OD=      4.4019041 O_TOT=     10.3486202 <-- SPRD
 Delta: O_D= -0.3913846E-14 O_OD= -0.6595950E-07 O_TOT= -0.6595950E-07 <-- DLTA
 ------------------------------------------------------------------------------
 Cycle:     21
  WF centre and spread    1  (  0.000001, -0.000000, -0.000000 )     1.64777816
  WF centre and spread    2  (  0.000000, -0.000000,  0.000000 )     2.19145929
  WF centre and spread    3  ( -0.000001, -0.000000, -0.000000 )     2.19146885
  WF centre and spread    4  (  0.000000,  0.000001, -0.000000 )     2.19146897
  WF centre and spread    5  (  0.000000, -0.000000, -0.000000 )     0.44615223
  WF centre and spread    6  ( -0.000000, -0.000000, -0.000000 )     0.41138014
  WF centre and spread    7  (  0.000000,  0.000000,  0.000000 )     0.41138014
  WF centre and spread    8  (  0.000000, -0.000000, -0.000000 )     0.44615211
  WF centre and spread    9  ( -0.000000,  0.000000, -0.000000 )     0.41138030
  Sum of centres and spreads ( -0.000000,  0.000000,  0.000000 )    10.34862019
 
     21    -0.114E-07     0.0000651759       10.3486201912       2.02  <-- CONV
        O_D=      0.0000000 O_OD=      4.4019041 O_TOT=     10.3486202 <-- SPRD
 Delta: O_D= -0.9714929E-14 O_OD= -0.1139705E-07 O_TOT= -0.1139707E-07 <-- DLTA
 ------------------------------------------------------------------------------
 Cycle:     22
  WF centre and spread    1  (  0.000001, -0.000000, -0.000000 )     1.64777951
  WF centre and spread    2  (  0.000000, -0.000000,  0.000001 )     2.19145912
  WF centre and spread    3  ( -0.000001, -0.000000, -0.000000 )     2.19146869
  WF centre and spread    4  (  0.000000,  0.000001, -0.000000 )     2.19146881
  WF centre and spread    5  (  0.000000, -0.000000, -0.000000 )     0.44615213
  WF centre and spread    6  ( -0.000000, -0.000000, -0.000000 )     0.41137992
  WF centre and spread    7  (  0.000000,  0.000000,  0.000000 )     0.41137992
  WF centre and spread    8  (  0.000000, -0.000000, -0.000000 )     0.44615200
  WF centre and spread    9  ( -0.000000,  0.000000, -0.000000 )     0.41138008
  Sum of centres and spreads ( -0.000000,  0.000000,  0.000000 )    10.34862018
 
     22    -0.105E-07     0.0000453869       10.3486201807       2.06  <-- CONV
        O_D=      0.0000000 O_OD=      4.4019041 O_TOT=     10.3486202 <-- SPRD
 Delta: O_D=  0.1501298E-14 O_OD= -0.1048050E-07 O_TOT= -0.1048050E-07 <-- DLTA
 ------------------------------------------------------------------------------
 Cycle:     23
  WF centre and spread    1  (  0.000001, -0.000000, -0.000000 )     1.64777951
  WF centre and spread    2  (  0.000000, -0.000000,  0.000001 )     2.19145912
  WF centre and spread    3  ( -0.000001, -0.000000, -0.000000 )     2.19146869
  WF centre and spread    4  (  0.000000,  0.000001, -0.000000 )     2.19146881
  WF centre and spread    5  (  0.000000, -0.000000, -0.000000 )     0.44615213
  WF centre and spread    6  ( -0.000000, -0.000000, -0.000000 )     0.41137991
  WF centre and spread    7  (  0.000000,  0.000000,  0.000000 )     0.41137991
  WF centre and spread    8  (  0.000000, -0.000000, -0.000000 )     0.44615200
  WF centre and spread    9  ( -0.000000,  0.000000, -0.000000 )     0.41138008
  Sum of centres and spreads ( -0.000000,  0.000000,  0.000000 )    10.34862018
 
     23    -0.421E-10     0.0000341985       10.3486201807       2.08  <-- CONV
        O_D=      0.0000000 O_OD=      4.4019041 O_TOT=     10.3486202 <-- SPRD
 Delta: O_D=  0.1318841E-16 O_OD= -0.4214584E-10 O_TOT= -0.4214584E-10 <-- DLTA
 ------------------------------------------------------------------------------
 Cycle:     24
  WF centre and spread    1  (  0.000001, -0.000000, -0.000000 )     1.64777952
  WF centre and spread    2  (  0.000000, -0.000000,  0.000001 )     2.19145912
  WF centre and spread    3  ( -0.000001, -0.000000, -0.000000 )     2.19146869
  WF centre and spread    4  (  0.000000,  0.000001, -0.000000 )     2.19146881
  WF centre and spread    5  (  0.000000, -0.000000, -0.000000 )     0.44615213
  WF centre and spread    6  ( -0.000000, -0.000000, -0.000000 )     0.41137991
  WF centre and spread    7  (  0.000000,  0.000000,  0.000000 )     0.41137991
  WF centre and spread    8  (  0.000000, -0.000000, -0.000000 )     0.44615200
  WF centre and spread    9  ( -0.000000,  0.000000, -0.000000 )     0.41138008
  Sum of centres and spreads ( -0.000000,  0.000000,  0.000000 )    10.34862018
 
     24    -0.712E-10     0.0000342027       10.3486201806       2.11  <-- CONV
        O_D=      0.0000000 O_OD=      4.4019041 O_TOT=     10.3486202 <-- SPRD
 Delta: O_D= -0.2330883E-17 O_OD= -0.7123280E-10 O_TOT= -0.7123369E-10 <-- DLTA
 ------------------------------------------------------------------------------
 Cycle:     25
  WF centre and spread    1  (  0.000001, -0.000000, -0.000000 )     1.64778167
  WF centre and spread    2  (  0.000000, -0.000000,  0.000001 )     2.19145895
  WF centre and spread    3  ( -0.000001, -0.000000, -0.000000 )     2.19146853
  WF centre and spread    4  (  0.000000,  0.000001, -0.000000 )     2.19146865
  WF centre and spread    5  (  0.000000, -0.000000, -0.000000 )     0.44615187
  WF centre and spread    6  ( -0.000000, -0.000000, -0.000000 )     0.41137953
  WF centre and spread    7  (  0.000000,  0.000000,  0.000000 )     0.41137953
  WF centre and spread    8  (  0.000000, -0.000000, -0.000000 )     0.44615174
  WF centre and spread    9  ( -0.000000,  0.000000, -0.000000 )     0.41137969
  Sum of centres and spreads ( -0.000000,  0.000000,  0.000000 )    10.34862016
 
     25    -0.175E-07     0.0000341669       10.3486201631       2.15  <-- CONV
        O_D=      0.0000000 O_OD=      4.4019041 O_TOT=     10.3486202 <-- SPRD
 Delta: O_D=  0.6175747E-14 O_OD= -0.1752009E-07 O_TOT= -0.1752008E-07 <-- DLTA
 ------------------------------------------------------------------------------
 Cycle:     26
  WF centre and spread    1  (  0.000001, -0.000000, -0.000000 )     1.64778167
  WF centre and spread    2  (  0.000000, -0.000000,  0.000001 )     2.19145895
  WF centre and spread    3  ( -0.000001, -0.000000, -0.000000 )     2.19146853
  WF centre and spread    4  (  0.000000,  0.000001, -0.000000 )     2.19146865
  WF centre and spread    5  (  0.000000, -0.000000, -0.000000 )     0.44615187
  WF centre and spread    6  ( -0.000000, -0.000000, -0.000000 )     0.41137953
  WF centre and spread    7  (  0.000000,  0.000000,  0.000000 )     0.41137953
  WF centre and spread    8  (  0.000000, -0.000000, -0.000000 )     0.44615174
  WF centre and spread    9  ( -0.000000,  0.000000, -0.000000 )     0.41137969
  Sum of centres and spreads ( -0.000000,  0.000000,  0.000000 )    10.34862016
 
     26    -0.285E-10     0.0000337564       10.3486201631       2.17  <-- CONV
        O_D=      0.0000000 O_OD=      4.4019041 O_TOT=     10.3486202 <-- SPRD
 Delta: O_D= -0.1888147E-16 O_OD= -0.2846523E-10 O_TOT= -0.2846434E-10 <-- DLTA
 ------------------------------------------------------------------------------
 Cycle:     27
  WF centre and spread    1  (  0.000001, -0.000001, -0.000000 )     1.64778158
  WF centre and spread    2  (  0.000000, -0.000000,  0.000001 )     2.19145903
  WF centre and spread    3  ( -0.000001, -0.000000, -0.000000 )     2.19146862
  WF centre and spread    4  (  0.000000,  0.000001, -0.000000 )     2.19146874
  WF centre and spread    5  (  0.000000, -0.000000, -0.000000 )     0.44615185
  WF centre and spread    6  ( -0.000000, -0.000000, -0.000000 )     0.41137948
  WF centre and spread    7  (  0.000000,  0.000000,  0.000000 )     0.41137948
  WF centre and spread    8  (  0.000000, -0.000000, -0.000000 )     0.44615172
  WF centre and spread    9  ( -0.000000,  0.000000, -0.000000 )     0.41137965
  Sum of centres and spreads ( -0.000000,  0.000000,  0.000000 )    10.34862016
 
     27    -0.650E-08     0.0000337184       10.3486201566       2.21  <-- CONV
        O_D=      0.0000000 O_OD=      4.4019041 O_TOT=     10.3486202 <-- SPRD
 Delta: O_D=  0.2469538E-15 O_OD= -0.6495165E-08 O_TOT= -0.6495165E-08 <-- DLTA
 ------------------------------------------------------------------------------
 Cycle:     28
  WF centre and spread    1  (  0.000001, -0.000001, -0.000000 )     1.64778158
  WF centre and spread    2  (  0.000000, -0.000000,  0.000001 )     2.19145904
  WF centre and spread    3  ( -0.000001, -0.000000, -0.000000 )     2.19146862
  WF centre and spread    4  (  0.000000,  0.000001, -0.000000 )     2.19146874
  WF centre and spread    5  (  0.000000, -0.000000, -0.000000 )     0.44615185
  WF centre and spread    6  ( -0.000000, -0.000000, -0.000000 )     0.41137948
  WF centre and spread    7  (  0.000000,  0.000000,  0.000000 )     0.41137948
  WF centre and spread    8  (  0.000000, -0.000000, -0.000000 )     0.44615172
  WF centre and spread    9  ( -0.000000,  0.000000, -0.000000 )     0.41137965
  Sum of centres and spreads ( -0.000000,  0.000000,  0.000000 )    10.34862016
 
     28    -0.500E-10     0.0000289076       10.3486201565       2.23  <-- CONV
        O_D=      0.0000000 O_OD=      4.4019041 O_TOT=     10.3486202 <-- SPRD
 Delta: O_D=  0.3544411E-16 O_OD= -0.5001510E-10 O_TOT= -0.5001510E-10 <-- DLTA
 ------------------------------------------------------------------------------
 Cycle:     29
  WF centre and spread    1  (  0.000001, -0.000001, -0.000001 )     1.64778154
  WF centre and spread    2  (  0.000000, -0.000000,  0.000001 )     2.19145918
  WF centre and spread    3  ( -0.000001, -0.000000, -0.000000 )     2.19146878
  WF centre and spread    4  (  0.000000,  0.000001, -0.000000 )     2.19146890
  WF centre and spread    5  (  0.000000, -0.000000, -0.000000 )     0.44615184
  WF centre and spread    6  ( -0.000000, -0.000000,  0.000000 )     0.41137935
  WF centre and spread    7  (  0.000000,  0.000000,  0.000000 )     0.41137935
  WF centre and spread    8  (  0.000000, -0.000000, -0.000000 )     0.44615170
  WF centre and spread    9  ( -0.000000,  0.000000, -0.000000 )     0.41137952
  Sum of centres and spreads ( -0.000000,  0.000000,  0.000000 )    10.34862014
 
     29    -0.149E-07     0.0000289131       10.3486201416       2.27  <-- CONV
        O_D=      0.0000000 O_OD=      4.4019040 O_TOT=     10.3486201 <-- SPRD
 Delta: O_D=  0.1174963E-13 O_OD= -0.1492549E-07 O_TOT= -0.1492548E-07 <-- DLTA
 ------------------------------------------------------------------------------
 Cycle:     30
  WF centre and spread    1  (  0.000001, -0.000001, -0.000001 )     1.64778154
  WF centre and spread    2  (  0.000000, -0.000000,  0.000001 )     2.19145918
  WF centre and spread    3  ( -0.000001, -0.000000, -0.000000 )     2.19146878
  WF centre and spread    4  (  0.000000,  0.000001, -0.000000 )     2.19146890
  WF centre and spread    5  (  0.000000, -0.000000, -0.000000 )     0.44615184
  WF centre and spread    6  ( -0.000000, -0.000000,  0.000000 )     0.41137935
  WF centre and spread    7  (  0.000000,  0.000000,  0.000000 )     0.41137935
  WF centre and spread    8  (  0.000000, -0.000000, -0.000000 )     0.44615170
  WF centre and spread    9  ( -0.000000,  0.000000, -0.000000 )     0.41137951
  Sum of centres and spreads ( -0.000000,  0.000000,  0.000000 )    10.34862014
 
     30    -0.121E-09     0.0000356673       10.3486201415       2.29  <-- CONV
        O_D=      0.0000000 O_OD=      4.4019040 O_TOT=     10.3486201 <-- SPRD
 Delta: O_D=  0.6770657E-16 O_OD= -0.1206493E-09 O_TOT= -0.1206502E-09 <-- DLTA
 ------------------------------------------------------------------------------
 Cycle:     31
  WF centre and spread    1  (  0.000001, -0.000001, -0.000001 )     1.64778225
  WF centre and spread    2  (  0.000000, -0.000000,  0.000001 )     2.19145939
  WF centre and spread    3  ( -0.000001, -0.000000, -0.000000 )     2.19146905
  WF centre and spread    4  (  0.000000,  0.000001, -0.000000 )     2.19146917
  WF centre and spread    5  (  0.000000, -0.000000, -0.000000 )     0.44615187
  WF centre and spread    6  ( -0.000000, -0.000000,  0.000000 )     0.41137882
  WF centre and spread    7  (  0.000000,  0.000000,  0.000000 )     0.41137882
  WF centre and spread    8  (  0.000000, -0.000000, -0.000000 )     0.44615171
  WF centre and spread    9  ( -0.000000,  0.000000, -0.000000 )     0.41137899
  Sum of centres and spreads ( -0.000000,  0.000000,  0.000000 )    10.34862007
 
     31    -0.667E-07     0.0000356901       10.3486200748       2.33  <-- CONV
        O_D=      0.0000000 O_OD=      4.4019040 O_TOT=     10.3486201 <-- SPRD
 Delta: O_D=  0.6662960E-13 O_OD= -0.6673064E-07 O_TOT= -0.6673057E-07 <-- DLTA
 ------------------------------------------------------------------------------
 Cycle:     32
  WF centre and spread    1  (  0.000001, -0.000001, -0.000001 )     1.64778235
  WF centre and spread    2  (  0.000000, -0.000000,  0.000001 )     2.19145937
  WF centre and spread    3  ( -0.000001, -0.000000, -0.000000 )     2.19146903
  WF centre and spread    4  (  0.000000,  0.000001, -0.000000 )     2.19146914
  WF centre and spread    5  (  0.000000, -0.000000, -0.000000 )     0.44615187
  WF centre and spread    6  ( -0.000000, -0.000000,  0.000000 )     0.41137882
  WF centre and spread    7  (  0.000000,  0.000000,  0.000000 )     0.41137881
  WF centre and spread    8  (  0.000000, -0.000000, -0.000000 )     0.44615170
  WF centre and spread    9  ( -0.000000,  0.000000, -0.000000 )     0.41137899
  Sum of centres and spreads ( -0.000000,  0.000000,  0.000000 )    10.34862007
 
     32    -0.238E-08     0.0000384068       10.3486200724       2.37  <-- CONV
        O_D=      0.0000000 O_OD=      4.4019040 O_TOT=     10.3486201 <-- SPRD
 Delta: O_D= -0.5165627E-14 O_OD= -0.2380884E-08 O_TOT= -0.2380890E-08 <-- DLTA
 ------------------------------------------------------------------------------
 Cycle:     33
  WF centre and spread    1  (  0.000001, -0.000001, -0.000001 )     1.64778235
  WF centre and spread    2  (  0.000000, -0.000000,  0.000001 )     2.19145937
  WF centre and spread    3  ( -0.000001, -0.000000, -0.000000 )     2.19146903
  WF centre and spread    4  (  0.000000,  0.000001, -0.000000 )     2.19146914
  WF centre and spread    5  (  0.000000, -0.000000, -0.000000 )     0.44615187
  WF centre and spread    6  ( -0.000000, -0.000000,  0.000000 )     0.41137882
  WF centre and spread    7  (  0.000000,  0.000000,  0.000000 )     0.41137881
  WF centre and spread    8  (  0.000000, -0.000000, -0.000000 )     0.44615170
  WF centre and spread    9  ( -0.000000,  0.000000, -0.000000 )     0.41137899
  Sum of centres and spreads ( -0.000000,  0.000000,  0.000000 )    10.34862007
 
     33    -0.563E-10     0.0000344790       10.3486200723       2.39  <-- CONV
        O_D=      0.0000000 O_OD=      4.4019040 O_TOT=     10.3486201 <-- SPRD
 Delta: O_D= -0.5795940E-16 O_OD= -0.5632828E-10 O_TOT= -0.5632828E-10 <-- DLTA
 ------------------------------------------------------------------------------
 Cycle:     34
  WF centre and spread    1  (  0.000001, -0.000001, -0.000001 )     1.64778262
  WF centre and spread    2  (  0.000000, -0.000000,  0.000001 )     2.19145930
  WF centre and spread    3  ( -0.000002, -0.000000, -0.000000 )     2.19146896
  WF centre and spread    4  (  0.000000,  0.000001, -0.000000 )     2.19146908
  WF centre and spread    5  (  0.000000, -0.000000, -0.000000 )     0.44615186
  WF centre and spread    6  ( -0.000000, -0.000000,  0.000000 )     0.41137880
  WF centre and spread    7  (  0.000000,  0.000000,  0.000000 )     0.41137880
  WF centre and spread    8  (  0.000000, -0.000000, -0.000000 )     0.44615169
  WF centre and spread    9  ( -0.000000,  0.000000, -0.000000 )     0.41137897
  Sum of centres and spreads ( -0.000000,  0.000000,  0.000000 )    10.34862007
 
     34    -0.556E-08     0.0000344023       10.3486200668       2.43  <-- CONV
        O_D=      0.0000000 O_OD=      4.4019040 O_TOT=     10.3486201 <-- SPRD
 Delta: O_D=  0.3445412E-14 O_OD= -0.5559244E-08 O_TOT= -0.5559240E-08 <-- DLTA
 ------------------------------------------------------------------------------
 Cycle:     35
  WF centre and spread    1  (  0.000001, -0.000001, -0.000001 )     1.64778262
  WF centre and spread    2  (  0.000000, -0.000000,  0.000001 )     2.19145930
  WF centre and spread    3  ( -0.000002, -0.000000, -0.000000 )     2.19146896
  WF centre and spread    4  (  0.000000,  0.000001, -0.000000 )     2.19146908
  WF centre and spread    5  (  0.000000, -0.000000, -0.000000 )     0.44615186
  WF centre and spread    6  ( -0.000000, -0.000000,  0.000000 )     0.41137880
  WF centre and spread    7  (  0.000000,  0.000000,  0.000000 )     0.41137879
  WF centre and spread    8  (  0.000000, -0.000000, -0.000000 )     0.44615169
  WF centre and spread    9  ( -0.000000,  0.000000, -0.000000 )     0.41137897
  Sum of centres and spreads ( -0.000000,  0.000000,  0.000000 )    10.34862007
 
     35    -0.683E-10     0.0000296215       10.3486200667       2.45  <-- CONV
        O_D=      0.0000000 O_OD=      4.4019040 O_TOT=     10.3486201 <-- SPRD
 Delta: O_D=  0.1608341E-15 O_OD= -0.6825474E-10 O_TOT= -0.6825474E-10 <-- DLTA
 ------------------------------------------------------------------------------
 Cycle:     36
  WF centre and spread    1  (  0.000001, -0.000001, -0.000001 )     1.64778333
  WF centre and spread    2  (  0.000000, -0.000000,  0.000001 )     2.19145911
  WF centre and spread    3  ( -0.000002, -0.000000, -0.000000 )     2.19146879
  WF centre and spread    4  (  0.000000,  0.000001, -0.000000 )     2.19146891
  WF centre and spread    5  (  0.000000, -0.000000, -0.000000 )     0.44615184
  WF centre and spread    6  ( -0.000000, -0.000000,  0.000000 )     0.41137875
  WF centre and spread    7  (  0.000000,  0.000000,  0.000000 )     0.41137875
  WF centre and spread    8  (  0.000000, -0.000000, -0.000000 )     0.44615166
  WF centre and spread    9  ( -0.000000,  0.000000, -0.000000 )     0.41137892
  Sum of centres and spreads ( -0.000000,  0.000000,  0.000000 )    10.34862005
 
     36    -0.133E-07     0.0000296111       10.3486200534       2.49  <-- CONV
        O_D=      0.0000000 O_OD=      4.4019040 O_TOT=     10.3486201 <-- SPRD
 Delta: O_D=  0.5643996E-13 O_OD= -0.1332129E-07 O_TOT= -0.1332124E-07 <-- DLTA
 ------------------------------------------------------------------------------
 Cycle:     37
  WF centre and spread    1  (  0.000003, -0.000002, -0.000002 )     1.64778707
  WF centre and spread    2  (  0.000000, -0.000000,  0.000002 )     2.19145802
  WF centre and spread    3  ( -0.000003, -0.000000, -0.000000 )     2.19146783
  WF centre and spread    4  (  0.000000,  0.000003, -0.000000 )     2.19146795
  WF centre and spread    5  (  0.000000, -0.000000, -0.000000 )     0.44615183
  WF centre and spread    6  ( -0.000000, -0.000000,  0.000000 )     0.41137853
  WF centre and spread    7  (  0.000000,  0.000000,  0.000000 )     0.41137853
  WF centre and spread    8  (  0.000000, -0.000000, -0.000000 )     0.44615158
  WF centre and spread    9  ( -0.000000,  0.000000, -0.000000 )     0.41137870
  Sum of centres and spreads ( -0.000000,  0.000000,  0.000000 )    10.34862004
 
     37    -0.158E-07     0.0000395814       10.3486200375       2.53  <-- CONV
        O_D=      0.0000000 O_OD=      4.4019039 O_TOT=     10.3486200 <-- SPRD
 Delta: O_D=  0.5725222E-12 O_OD= -0.1584603E-07 O_TOT= -0.1584546E-07 <-- DLTA
 ------------------------------------------------------------------------------
 Cycle:     38
  WF centre and spread    1  (  0.000003, -0.000002, -0.000002 )     1.64778444
  WF centre and spread    2  (  0.000000, -0.000000,  0.000003 )     2.19145850
  WF centre and spread    3  ( -0.000003, -0.000000, -0.000000 )     2.19146831
  WF centre and spread    4  (  0.000000,  0.000003, -0.000000 )     2.19146843
  WF centre and spread    5  (  0.000000, -0.000000, -0.000000 )     0.44615199
  WF centre and spread    6  ( -0.000000, -0.000000,  0.000000 )     0.41137880
  WF centre and spread    7  (  0.000000,  0.000000,  0.000000 )     0.41137880
  WF centre and spread    8  (  0.000000, -0.000000, -0.000000 )     0.44615173
  WF centre and spread    9  ( -0.000000,  0.000000, -0.000000 )     0.41137897
  Sum of centres and spreads ( -0.000000,  0.000000,  0.000000 )    10.34861996
 
     38    -0.773E-07     0.0001412615       10.3486199602       2.57  <-- CONV
        O_D=      0.0000000 O_OD=      4.4019039 O_TOT=     10.3486200 <-- SPRD
 Delta: O_D= -0.1114496E-12 O_OD= -0.7733359E-07 O_TOT= -0.7733370E-07 <-- DLTA
 ------------------------------------------------------------------------------
 Cycle:     39
  WF centre and spread    1  (  0.000003, -0.000003, -0.000002 )     1.64778217
  WF centre and spread    2  (  0.000000, -0.000000,  0.000003 )     2.19145888
  WF centre and spread    3  ( -0.000004, -0.000000, -0.000000 )     2.19146870
  WF centre and spread    4  (  0.000000,  0.000003, -0.000000 )     2.19146882
  WF centre and spread    5  (  0.000000, -0.000000, -0.000000 )     0.44615210
  WF centre and spread    6  ( -0.000000, -0.000000,  0.000000 )     0.41137908
  WF centre and spread    7  (  0.000000,  0.000000,  0.000000 )     0.41137908
  WF centre and spread    8  (  0.000000, -0.000000, -0.000000 )     0.44615184
  WF centre and spread    9  ( -0.000000,  0.000000, -0.000000 )     0.41137926
  Sum of centres and spreads ( -0.000000,  0.000000,  0.000000 )    10.34861994
 
     39    -0.251E-07     0.0000617932       10.3486199350       2.61  <-- CONV
        O_D=      0.0000000 O_OD=      4.4019038 O_TOT=     10.3486199 <-- SPRD
 Delta: O_D=  0.7062762E-13 O_OD= -0.2514555E-07 O_TOT= -0.2514548E-07 <-- DLTA
 ------------------------------------------------------------------------------
 Cycle:     40
  WF centre and spread    1  (  0.000003, -0.000003, -0.000002 )     1.64778217
  WF centre and spread    2  (  0.000000, -0.000000,  0.000003 )     2.19145888
  WF centre and spread    3  ( -0.000004, -0.000000, -0.000000 )     2.19146870
  WF centre and spread    4  (  0.000000,  0.000003, -0.000000 )     2.19146882
  WF centre and spread    5  (  0.000000, -0.000000, -0.000000 )     0.44615210
  WF centre and spread    6  ( -0.000000, -0.000000,  0.000000 )     0.41137908
  WF centre and spread    7  (  0.000000,  0.000000,  0.000000 )     0.41137908
  WF centre and spread    8  (  0.000000, -0.000000, -0.000000 )     0.44615184
  WF centre and spread    9  ( -0.000000,  0.000000, -0.000000 )     0.41137926
  Sum of centres and spreads ( -0.000000,  0.000000,  0.000000 )    10.34861993
 
     40    -0.427E-10     0.0000355461       10.3486199350       2.63  <-- CONV
        O_D=      0.0000000 O_OD=      4.4019038 O_TOT=     10.3486199 <-- SPRD
 Delta: O_D=  0.3689661E-15 O_OD= -0.4273470E-10 O_TOT= -0.4273559E-10 <-- DLTA
 ------------------------------------------------------------------------------
 Cycle:     41
  WF centre and spread    1  (  0.000003, -0.000003, -0.000002 )     1.64778196
  WF centre and spread    2  (  0.000000, -0.000000,  0.000003 )     2.19145891
  WF centre and spread    3  ( -0.000004, -0.000000, -0.000000 )     2.19146874
  WF centre and spread    4  (  0.000000,  0.000003, -0.000000 )     2.19146885
  WF centre and spread    5  (  0.000000, -0.000000, -0.000000 )     0.44615209
  WF centre and spread    6  ( -0.000000, -0.000000,  0.000000 )     0.41137913
  WF centre and spread    7  (  0.000000,  0.000000,  0.000000 )     0.41137912
  WF centre and spread    8  (  0.000000, -0.000000, -0.000000 )     0.44615183
  WF centre and spread    9  ( -0.000000,  0.000000, -0.000000 )     0.41137930
  Sum of centres and spreads ( -0.000000,  0.000000,  0.000000 )    10.34861993
 
     41    -0.492E-08     0.0000355024       10.3486199301       2.67  <-- CONV
        O_D=      0.0000000 O_OD=      4.4019038 O_TOT=     10.3486199 <-- SPRD
 Delta: O_D=  0.4815709E-13 O_OD= -0.4915551E-08 O_TOT= -0.4915501E-08 <-- DLTA
 ------------------------------------------------------------------------------
 Cycle:     42
  WF centre and spread    1  (  0.000004, -0.000003, -0.000003 )     1.64778091
  WF centre and spread    2  (  0.000000, -0.000000,  0.000004 )     2.19145909
  WF centre and spread    3  ( -0.000005, -0.000000, -0.000000 )     2.19146894
  WF centre and spread    4  (  0.000000,  0.000004, -0.000000 )     2.19146906
  WF centre and spread    5  (  0.000000, -0.000000, -0.000000 )     0.44615200
  WF centre and spread    6  ( -0.000000, -0.000000,  0.000000 )     0.41137934
  WF centre and spread    7  (  0.000000,  0.000000,  0.000000 )     0.41137934
  WF centre and spread    8  (  0.000000, -0.000000, -0.000000 )     0.44615170
  WF centre and spread    9  ( -0.000000,  0.000000, -0.000000 )     0.41137952
  Sum of centres and spreads ( -0.000000,  0.000000,  0.000000 )    10.34861992
 
     42    -0.144E-07     0.0000306302       10.3486199157       2.71  <-- CONV
        O_D=      0.0000000 O_OD=      4.4019038 O_TOT=     10.3486199 <-- SPRD
 Delta: O_D=  0.4230061E-12 O_OD= -0.1436210E-07 O_TOT= -0.1436167E-07 <-- DLTA
 ------------------------------------------------------------------------------
 Cycle:     43
  WF centre and spread    1  (  0.000004, -0.000003, -0.000003 )     1.64778092
  WF centre and spread    2  (  0.000000, -0.000000,  0.000004 )     2.19145909
  WF centre and spread    3  ( -0.000005, -0.000000, -0.000000 )     2.19146894
  WF centre and spread    4  (  0.000000,  0.000004, -0.000000 )     2.19146906
  WF centre and spread    5  (  0.000000, -0.000000, -0.000000 )     0.44615200
  WF centre and spread    6  ( -0.000000, -0.000000,  0.000000 )     0.41137934
  WF centre and spread    7  (  0.000000,  0.000000,  0.000000 )     0.41137934
  WF centre and spread    8  (  0.000000, -0.000000, -0.000000 )     0.44615170
  WF centre and spread    9  ( -0.000000,  0.000000, -0.000000 )     0.41137952
  Sum of centres and spreads ( -0.000000,  0.000000,  0.000000 )    10.34861992
 
     43    -0.943E-10     0.0000614381       10.3486199156       2.73  <-- CONV
        O_D=      0.0000000 O_OD=      4.4019038 O_TOT=     10.3486199 <-- SPRD
 Delta: O_D=  0.3794060E-15 O_OD= -0.9431655E-10 O_TOT= -0.9431744E-10 <-- DLTA
 ------------------------------------------------------------------------------
 Cycle:     44
  WF centre and spread    1  (  0.000004, -0.000003, -0.000003 )     1.64778131
  WF centre and spread    2  (  0.000000, -0.000000,  0.000004 )     2.19145909
  WF centre and spread    3  ( -0.000005, -0.000000, -0.000000 )     2.19146894
  WF centre and spread    4  (  0.000000,  0.000004, -0.000000 )     2.19146906
  WF centre and spread    5  (  0.000000, -0.000000, -0.000000 )     0.44615199
  WF centre and spread    6  ( -0.000000, -0.000000,  0.000000 )     0.41137922
  WF centre and spread    7  (  0.000000,  0.000000,  0.000000 )     0.41137922
  WF centre and spread    8  (  0.000000, -0.000000, -0.000000 )     0.44615169
  WF centre and spread    9  ( -0.000000,  0.000000, -0.000000 )     0.41137939
  Sum of centres and spreads ( -0.000000,  0.000000,  0.000000 )    10.34861990
 
     44    -0.145E-07     0.0000612538       10.3486199011       2.77  <-- CONV
        O_D=      0.0000000 O_OD=      4.4019038 O_TOT=     10.3486199 <-- SPRD
 Delta: O_D=  0.1065938E-12 O_OD= -0.1448181E-07 O_TOT= -0.1448170E-07 <-- DLTA
 ------------------------------------------------------------------------------
 Cycle:     45
  WF centre and spread    1  (  0.000004, -0.000003, -0.000003 )     1.64778131
  WF centre and spread    2  (  0.000000, -0.000000,  0.000004 )     2.19145909
  WF centre and spread    3  ( -0.000005, -0.000000, -0.000000 )     2.19146894
  WF centre and spread    4  (  0.000000,  0.000004, -0.000000 )     2.19146906
  WF centre and spread    5  (  0.000000, -0.000000, -0.000000 )     0.44615199
  WF centre and spread    6  ( -0.000000, -0.000000,  0.000000 )     0.41137922
  WF centre and spread    7  (  0.000000,  0.000000,  0.000000 )     0.41137922
  WF centre and spread    8  (  0.000000, -0.000000, -0.000000 )     0.44615169
  WF centre and spread    9  ( -0.000000,  0.000000, -0.000000 )     0.41137939
  Sum of centres and spreads ( -0.000000,  0.000000,  0.000000 )    10.34861990
 
     45    -0.399E-10     0.0000322121       10.3486199011       2.79  <-- CONV
        O_D=      0.0000000 O_OD=      4.4019038 O_TOT=     10.3486199 <-- SPRD
 Delta: O_D=  0.7668990E-15 O_OD= -0.3989253E-10 O_TOT= -0.3989342E-10 <-- DLTA
 ------------------------------------------------------------------------------
 Cycle:     46
  WF centre and spread    1  (  0.000004, -0.000003, -0.000003 )     1.64778131
  WF centre and spread    2  (  0.000000, -0.000000,  0.000004 )     2.19145909
  WF centre and spread    3  ( -0.000005, -0.000000, -0.000000 )     2.19146894
  WF centre and spread    4  (  0.000000,  0.000004, -0.000000 )     2.19146906
  WF centre and spread    5  (  0.000000, -0.000000, -0.000000 )     0.44615199
  WF centre and spread    6  ( -0.000000, -0.000000,  0.000000 )     0.41137922
  WF centre and spread    7  (  0.000000,  0.000000,  0.000000 )     0.41137922
  WF centre and spread    8  (  0.000000, -0.000000, -0.000000 )     0.44615169
  WF centre and spread    9  ( -0.000000,  0.000000, -0.000000 )     0.41137939
  Sum of centres and spreads ( -0.000000,  0.000000,  0.000000 )    10.34861990
 
     46    -0.656E-10     0.0000321942       10.3486199010       2.81  <-- CONV
        O_D=      0.0000000 O_OD=      4.4019038 O_TOT=     10.3486199 <-- SPRD
 Delta: O_D=  0.1259470E-14 O_OD= -0.6563816E-10 O_TOT= -0.6563639E-10 <-- DLTA
 ------------------------------------------------------------------------------
 Cycle:     47
  WF centre and spread    1  (  0.000012, -0.000010, -0.000009 )     1.64779506
  WF centre and spread    2  (  0.000000, -0.000000,  0.000011 )     2.19145769
  WF centre and spread    3  ( -0.000015, -0.000000, -0.000000 )     2.19146774
  WF centre and spread    4  (  0.000000,  0.000012, -0.000000 )     2.19146785
  WF centre and spread    5  (  0.000000, -0.000000, -0.000001 )     0.44615246
  WF centre and spread    6  ( -0.000000, -0.000000,  0.000000 )     0.41137592
  WF centre and spread    7  (  0.000000,  0.000000,  0.000000 )     0.41137591
  WF centre and spread    8  (  0.000001, -0.000001, -0.000000 )     0.44615188
  WF centre and spread    9  ( -0.000000,  0.000000, -0.000000 )     0.41137610
  Sum of centres and spreads ( -0.000001,  0.000000,  0.000000 )    10.34862060
 
     47     0.699E-06     0.0000321571       10.3486206003       2.85  <-- CONV
        O_D=      0.0000000 O_OD=      4.4019045 O_TOT=     10.3486206 <-- SPRD
 Delta: O_D=  0.1083003E-10 O_OD=  0.6992389E-06 O_TOT=  0.6992497E-06 <-- DLTA
 ------------------------------------------------------------------------------
 Cycle:     48
  WF centre and spread    1  (  0.000013, -0.000011, -0.000010 )     1.64778844
  WF centre and spread    2  (  0.000000, -0.000000,  0.000012 )     2.19145788
  WF centre and spread    3  ( -0.000015, -0.000000, -0.000000 )     2.19146795
  WF centre and spread    4  (  0.000000,  0.000013, -0.000000 )     2.19146807
  WF centre and spread    5  (  0.000000, -0.000000, -0.000001 )     0.44615252
  WF centre and spread    6  ( -0.000000, -0.000000,  0.000000 )     0.41137761
  WF centre and spread    7  (  0.000000,  0.000000,  0.000000 )     0.41137761
  WF centre and spread    8  (  0.000001, -0.000001, -0.000000 )     0.44615193
  WF centre and spread    9  ( -0.000000,  0.000000, -0.000000 )     0.41137779
  Sum of centres and spreads ( -0.000001,  0.000000,  0.000000 )    10.34861981
 
     48    -0.792E-06     0.0004290580       10.3486198086       2.89  <-- CONV
        O_D=      0.0000000 O_OD=      4.4019037 O_TOT=     10.3486198 <-- SPRD
 Delta: O_D=  0.1603823E-11 O_OD= -0.7916744E-06 O_TOT= -0.7916728E-06 <-- DLTA
 ------------------------------------------------------------------------------
 Cycle:     49
  WF centre and spread    1  (  0.000015, -0.000013, -0.000012 )     1.64777896
  WF centre and spread    2  (  0.000000, -0.000000,  0.000014 )     2.19145956
  WF centre and spread    3  ( -0.000018, -0.000000, -0.000000 )     2.19146966
  WF centre and spread    4  (  0.000000,  0.000015, -0.000000 )     2.19146977
  WF centre and spread    5  (  0.000000, -0.000000, -0.000002 )     0.44615218
  WF centre and spread    6  ( -0.000000, -0.000000,  0.000000 )     0.41137928
  WF centre and spread    7  (  0.000000,  0.000000,  0.000000 )     0.41137928
  WF centre and spread    8  (  0.000001, -0.000001, -0.000000 )     0.44615157
  WF centre and spread    9  ( -0.000000,  0.000000, -0.000000 )     0.41137946
  Sum of centres and spreads ( -0.000001,  0.000001,  0.000000 )    10.34861972
 
[...]
 Delta: O_D= -0.5115562E-08 O_OD= -0.6489347E-08 O_TOT= -0.1160491E-07 <-- DLTA
 ------------------------------------------------------------------------------
 Cycle:    386
  WF centre and spread    1  (  0.000433, -0.685467, -0.000258 )     1.10268534
  WF centre and spread    2  (  0.000088, -0.000258,  0.685467 )     1.10268564
  WF centre and spread    3  ( -0.685467, -0.000433,  0.000087 )     1.10268551
  WF centre and spread    4  ( -0.000433,  0.685467,  0.000258 )     1.10268563
  WF centre and spread    5  ( -0.000088,  0.000257, -0.685467 )     1.10268520
  WF centre and spread    6  ( -0.000000, -0.000000,  0.000000 )     0.41116639
  WF centre and spread    7  (  0.000000,  0.000000,  0.000000 )     0.41116639
  WF centre and spread    8  (  0.685467,  0.000433, -0.000087 )     1.10268530
  WF centre and spread    9  ( -0.000000,  0.000000, -0.000000 )     0.41116640
  Sum of centres and spreads ( -0.000000,  0.000000,  0.000000 )     7.84961181
 
    386    -0.255E-08     0.0000255337        7.8496118143      16.05  <-- CONV
        O_D=      0.0145243 O_OD=      1.8883715 O_TOT=      7.8496118 <-- SPRD
 Delta: O_D= -0.1357517E-08 O_OD= -0.1193172E-08 O_TOT= -0.2550688E-08 <-- DLTA
 ------------------------------------------------------------------------------
 Cycle:    387
  WF centre and spread    1  (  0.000433, -0.685467, -0.000258 )     1.10268534
  WF centre and spread    2  (  0.000088, -0.000258,  0.685467 )     1.10268564
  WF centre and spread    3  ( -0.685467, -0.000433,  0.000087 )     1.10268551
  WF centre and spread    4  ( -0.000433,  0.685467,  0.000258 )     1.10268563
  WF centre and spread    5  ( -0.000088,  0.000257, -0.685467 )     1.10268520
  WF centre and spread    6  ( -0.000000, -0.000000,  0.000000 )     0.41116639
  WF centre and spread    7  (  0.000000,  0.000000,  0.000000 )     0.41116639
  WF centre and spread    8  (  0.685467,  0.000433, -0.000087 )     1.10268530
  WF centre and spread    9  ( -0.000000,  0.000000, -0.000000 )     0.41116640
  Sum of centres and spreads ( -0.000000,  0.000000,  0.000000 )     7.84961181
 
    387    -0.258E-10     0.0000230370        7.8496118143      16.08  <-- CONV
        O_D=      0.0145243 O_OD=      1.8883715 O_TOT=      7.8496118 <-- SPRD
 Delta: O_D= -0.9376470E-11 O_OD= -0.1641998E-10 O_TOT= -0.2579625E-10 <-- DLTA
 ------------------------------------------------------------------------------
 Cycle:    388
  WF centre and spread    1  (  0.000428, -0.685467, -0.000255 )     1.10268534
  WF centre and spread    2  (  0.000087, -0.000255,  0.685467 )     1.10268560
  WF centre and spread    3  ( -0.685467, -0.000428,  0.000086 )     1.10268555
  WF centre and spread    4  ( -0.000428,  0.685467,  0.000255 )     1.10268560
  WF centre and spread    5  ( -0.000087,  0.000255, -0.685467 )     1.10268527
  WF centre and spread    6  (  0.000000, -0.000000,  0.000000 )     0.41116638
  WF centre and spread    7  (  0.000000,  0.000000,  0.000000 )     0.41116637
  WF centre and spread    8  (  0.685467,  0.000428, -0.000086 )     1.10268531
  WF centre and spread    9  ( -0.000000,  0.000000, -0.000000 )     0.41116638
  Sum of centres and spreads ( -0.000000,  0.000000,  0.000000 )     7.84961180
 
    388    -0.112E-07     0.0000230163        7.8496118031      16.12  <-- CONV
        O_D=      0.0145243 O_OD=      1.8883715 O_TOT=      7.8496118 <-- SPRD
 Delta: O_D= -0.2122107E-08 O_OD= -0.9078941E-08 O_TOT= -0.1120105E-07 <-- DLTA
 ------------------------------------------------------------------------------
 Cycle:    389
  WF centre and spread    1  (  0.000427, -0.685467, -0.000254 )     1.10268535
  WF centre and spread    2  (  0.000087, -0.000254,  0.685467 )     1.10268559
  WF centre and spread    3  ( -0.685467, -0.000428,  0.000086 )     1.10268553
  WF centre and spread    4  ( -0.000427,  0.685467,  0.000254 )     1.10268560
  WF centre and spread    5  ( -0.000087,  0.000254, -0.685467 )     1.10268529
  WF centre and spread    6  (  0.000000, -0.000000,  0.000000 )     0.41116638
  WF centre and spread    7  (  0.000000,  0.000000,  0.000000 )     0.41116637
  WF centre and spread    8  (  0.685467,  0.000427, -0.000086 )     1.10268530
  WF centre and spread    9  ( -0.000000,  0.000000, -0.000000 )     0.41116638
  Sum of centres and spreads ( -0.000000,  0.000000,  0.000000 )     7.84961180
 
    389    -0.603E-08     0.0000431795        7.8496117970      16.15  <-- CONV
        O_D=      0.0145243 O_OD=      1.8883714 O_TOT=      7.8496118 <-- SPRD
 Delta: O_D= -0.3584537E-09 O_OD= -0.5668844E-08 O_TOT= -0.6027298E-08 <-- DLTA
 ------------------------------------------------------------------------------
 Cycle:    390
  WF centre and spread    1  (  0.000427, -0.685467, -0.000254 )     1.10268535
  WF centre and spread    2  (  0.000087, -0.000254,  0.685467 )     1.10268559
  WF centre and spread    3  ( -0.685467, -0.000428,  0.000086 )     1.10268553
  WF centre and spread    4  ( -0.000427,  0.685467,  0.000254 )     1.10268560
  WF centre and spread    5  ( -0.000087,  0.000254, -0.685467 )     1.10268529
  WF centre and spread    6  (  0.000000, -0.000000,  0.000000 )     0.41116638
  WF centre and spread    7  (  0.000000,  0.000000,  0.000000 )     0.41116637
  WF centre and spread    8  (  0.685467,  0.000427, -0.000086 )     1.10268530
  WF centre and spread    9  ( -0.000000,  0.000000, -0.000000 )     0.41116638
  Sum of centres and spreads ( -0.000000,  0.000000,  0.000000 )     7.84961180
 
    390    -0.159E-10     0.0000223579        7.8496117970      16.18  <-- CONV
        O_D=      0.0145243 O_OD=      1.8883714 O_TOT=      7.8496118 <-- SPRD
 Delta: O_D=  0.4501568E-11 O_OD= -0.2039369E-10 O_TOT= -0.1589218E-10 <-- DLTA
 ------------------------------------------------------------------------------
 Cycle:    391
  WF centre and spread    1  (  0.000426, -0.685467, -0.000254 )     1.10268537
  WF centre and spread    2  (  0.000086, -0.000254,  0.685467 )     1.10268558
  WF centre and spread    3  ( -0.685467, -0.000427,  0.000086 )     1.10268551
  WF centre and spread    4  ( -0.000426,  0.685467,  0.000254 )     1.10268559
  WF centre and spread    5  ( -0.000086,  0.000254, -0.685467 )     1.10268530
  WF centre and spread    6  (  0.000000, -0.000000,  0.000000 )     0.41116638
  WF centre and spread    7  (  0.000000,  0.000000,  0.000000 )     0.41116637
  WF centre and spread    8  (  0.685467,  0.000426, -0.000086 )     1.10268530
  WF centre and spread    9  ( -0.000000,  0.000000, -0.000000 )     0.41116638
  Sum of centres and spreads ( -0.000000,  0.000000,  0.000000 )     7.84961179
 
    391    -0.321E-08     0.0000223500        7.8496117938      16.22  <-- CONV
        O_D=      0.0145243 O_OD=      1.8883714 O_TOT=      7.8496118 <-- SPRD
 Delta: O_D=  0.7958925E-09 O_OD= -0.4002084E-08 O_TOT= -0.3206191E-08 <-- DLTA
 ------------------------------------------------------------------------------
 Cycle:    392
  WF centre and spread    1  (  0.000422, -0.685467, -0.000251 )     1.10268546
  WF centre and spread    2  (  0.000085, -0.000251,  0.685467 )     1.10268550
  WF centre and spread    3  ( -0.685467, -0.000422,  0.000085 )     1.10268546
  WF centre and spread    4  ( -0.000421,  0.685467,  0.000251 )     1.10268556
  WF centre and spread    5  ( -0.000085,  0.000251, -0.685467 )     1.10268536
  WF centre and spread    6  (  0.000000,  0.000000,  0.000000 )     0.41116638
  WF centre and spread    7  ( -0.000000,  0.000000,  0.000000 )     0.41116637
  WF centre and spread    8  (  0.685467,  0.000422, -0.000085 )     1.10268531
  WF centre and spread    9  ( -0.000000,  0.000000, -0.000000 )     0.41116638
  Sum of centres and spreads ( -0.000000,  0.000000,  0.000000 )     7.84961178
 
    392    -0.129E-07     0.0000217185        7.8496117809      16.25  <-- CONV
        O_D=      0.0145243 O_OD=      1.8883714 O_TOT=      7.8496118 <-- SPRD
 Delta: O_D=  0.2157725E-08 O_OD= -0.1506635E-07 O_TOT= -0.1290863E-07 <-- DLTA
 ------------------------------------------------------------------------------
 Cycle:    393
  WF centre and spread    1  (  0.000409, -0.685467, -0.000243 )     1.10268563
  WF centre and spread    2  (  0.000083, -0.000243,  0.685467 )     1.10268533
  WF centre and spread    3  ( -0.685467, -0.000409,  0.000083 )     1.10268538
  WF centre and spread    4  ( -0.000409,  0.685467,  0.000243 )     1.10268548
  WF centre and spread    5  ( -0.000083,  0.000243, -0.685467 )     1.10268546
  WF centre and spread    6  (  0.000000,  0.000000, -0.000000 )     0.41116637
  WF centre and spread    7  ( -0.000000,  0.000000,  0.000000 )     0.41116636
  WF centre and spread    8  (  0.685467,  0.000409, -0.000083 )     1.10268536
  WF centre and spread    9  ( -0.000000, -0.000000,  0.000000 )     0.41116636
  Sum of centres and spreads ( -0.000000,  0.000000,  0.000000 )     7.84961175
 
    393    -0.323E-07     0.0000311896        7.8496117486      16.29  <-- CONV
        O_D=      0.0145243 O_OD=      1.8883714 O_TOT=      7.8496117 <-- SPRD
 Delta: O_D= -0.1282460E-08 O_OD= -0.3105898E-07 O_TOT= -0.3234144E-07 <-- DLTA
 ------------------------------------------------------------------------------
 Cycle:    394
  WF centre and spread    1  (  0.000409, -0.685467, -0.000243 )     1.10268564
  WF centre and spread    2  (  0.000083, -0.000243,  0.685467 )     1.10268533
  WF centre and spread    3  ( -0.685467, -0.000409,  0.000083 )     1.10268538
  WF centre and spread    4  ( -0.000409,  0.685467,  0.000243 )     1.10268548
  WF centre and spread    5  ( -0.000083,  0.000243, -0.685467 )     1.10268546
  WF centre and spread    6  (  0.000000,  0.000000, -0.000000 )     0.41116637
  WF centre and spread    7  ( -0.000000,  0.000000,  0.000000 )     0.41116636
  WF centre and spread    8  (  0.685467,  0.000409, -0.000083 )     1.10268536
  WF centre and spread    9  ( -0.000000, -0.000000,  0.000000 )     0.41116636
  Sum of centres and spreads ( -0.000000,  0.000000,  0.000000 )     7.84961175
 
    394    -0.192E-09     0.0000462916        7.8496117484      16.32  <-- CONV
        O_D=      0.0145243 O_OD=      1.8883714 O_TOT=      7.8496117 <-- SPRD
 Delta: O_D= -0.3128187E-10 O_OD= -0.1610512E-09 O_TOT= -0.1923333E-09 <-- DLTA
 ------------------------------------------------------------------------------
 Cycle:    395
  WF centre and spread    1  (  0.000408, -0.685467, -0.000243 )     1.10268558
  WF centre and spread    2  (  0.000083, -0.000243,  0.685467 )     1.10268535
  WF centre and spread    3  ( -0.685467, -0.000408,  0.000082 )     1.10268542
  WF centre and spread    4  ( -0.000408,  0.685467,  0.000243 )     1.10268549
  WF centre and spread    5  ( -0.000083,  0.000243, -0.685467 )     1.10268543
  WF centre and spread    6  (  0.000000,  0.000000, -0.000000 )     0.41116637
  WF centre and spread    7  ( -0.000000,  0.000000,  0.000000 )     0.41116636
  WF centre and spread    8  (  0.685467,  0.000408, -0.000082 )     1.10268538
  WF centre and spread    9  ( -0.000000, -0.000000,  0.000000 )     0.41116636
  Sum of centres and spreads ( -0.000000,  0.000000,  0.000000 )     7.84961174
 
    395    -0.899E-08     0.0000462659        7.8496117394      16.36  <-- CONV
        O_D=      0.0145242 O_OD=      1.8883714 O_TOT=      7.8496117 <-- SPRD
 Delta: O_D= -0.5757255E-08 O_OD= -0.3232126E-08 O_TOT= -0.8989380E-08 <-- DLTA
 ------------------------------------------------------------------------------
 Cycle:    396
  WF centre and spread    1  (  0.000407, -0.685467, -0.000242 )     1.10268554
  WF centre and spread    2  (  0.000082, -0.000242,  0.685467 )     1.10268536
  WF centre and spread    3  ( -0.685467, -0.000407,  0.000082 )     1.10268544
  WF centre and spread    4  ( -0.000407,  0.685467,  0.000242 )     1.10268549
  WF centre and spread    5  ( -0.000083,  0.000242, -0.685467 )     1.10268543
  WF centre and spread    6  (  0.000000,  0.000000, -0.000000 )     0.41116637
  WF centre and spread    7  ( -0.000000,  0.000000,  0.000000 )     0.41116636
  WF centre and spread    8  (  0.685467,  0.000407, -0.000082 )     1.10268539
  WF centre and spread    9  ( -0.000000, -0.000000,  0.000000 )     0.41116636
  Sum of centres and spreads ( -0.000000,  0.000000,  0.000000 )     7.84961174
 
    396    -0.300E-08     0.0000248885        7.8496117364      16.39  <-- CONV
        O_D=      0.0145242 O_OD=      1.8883714 O_TOT=      7.8496117 <-- SPRD
 Delta: O_D= -0.1705928E-08 O_OD= -0.1296011E-08 O_TOT= -0.3001939E-08 <-- DLTA
 ------------------------------------------------------------------------------
 Cycle:    397
  WF centre and spread    1  (  0.000392, -0.685467, -0.000234 )     1.10268496
  WF centre and spread    2  (  0.000080, -0.000234,  0.685468 )     1.10268568
  WF centre and spread    3  ( -0.685467, -0.000393,  0.000079 )     1.10268565
  WF centre and spread    4  ( -0.000392,  0.685467,  0.000233 )     1.10268567
  WF centre and spread    5  ( -0.000080,  0.000233, -0.685467 )     1.10268535
  WF centre and spread    6  (  0.000000, -0.000000, -0.000000 )     0.41116637
  WF centre and spread    7  (  0.000000,  0.000000,  0.000000 )     0.41116633
  WF centre and spread    8  (  0.685467,  0.000393, -0.000079 )     1.10268541
  WF centre and spread    9  ( -0.000000, -0.000000, -0.000000 )     0.41116634
  Sum of centres and spreads ( -0.000000, -0.000000,  0.000000 )     7.84961177
 
    397     0.312E-07     0.0000208782        7.8496117676      16.43  <-- CONV
        O_D=      0.0145242 O_OD=      1.8883714 O_TOT=      7.8496118 <-- SPRD
 Delta: O_D= -0.6579466E-09 O_OD=  0.3184169E-07 O_TOT=  0.3118374E-07 <-- DLTA
 ------------------------------------------------------------------------------
 Cycle:    398
  WF centre and spread    1  (  0.000391, -0.685467, -0.000233 )     1.10268523
  WF centre and spread    2  (  0.000079, -0.000233,  0.685467 )     1.10268564
  WF centre and spread    3  ( -0.685467, -0.000391,  0.000079 )     1.10268552
  WF centre and spread    4  ( -0.000391,  0.685467,  0.000233 )     1.10268561
  WF centre and spread    5  ( -0.000079,  0.000233, -0.685467 )     1.10268537
  WF centre and spread    6  (  0.000000, -0.000000, -0.000000 )     0.41116637
  WF centre and spread    7  (  0.000000,  0.000000,  0.000000 )     0.41116635
  WF centre and spread    8  (  0.685467,  0.000391, -0.000079 )     1.10268523
  WF centre and spread    9  ( -0.000000,  0.000000, -0.000000 )     0.41116635
  Sum of centres and spreads ( -0.000000, -0.000000,  0.000000 )     7.84961169
 
    398    -0.759E-07     0.0001275621        7.8496116917      16.47  <-- CONV
        O_D=      0.0145243 O_OD=      1.8883713 O_TOT=      7.8496117 <-- SPRD
 Delta: O_D=  0.1454367E-07 O_OD= -0.9042287E-07 O_TOT= -0.7587920E-07 <-- DLTA
 ------------------------------------------------------------------------------
 Cycle:    399
  WF centre and spread    1  (  0.000374, -0.685467, -0.000223 )     1.10268672
  WF centre and spread    2  (  0.000076, -0.000223,  0.685467 )     1.10268509
  WF centre and spread    3  ( -0.685467, -0.000374,  0.000076 )     1.10268523
  WF centre and spread    4  ( -0.000374,  0.685467,  0.000223 )     1.10268500
  WF centre and spread    5  ( -0.000076,  0.000223, -0.685467 )     1.10268550
  WF centre and spread    6  ( -0.000000,  0.000000,  0.000000 )     0.41116641
  WF centre and spread    7  ( -0.000000,  0.000000,  0.000000 )     0.41116645
  WF centre and spread    8  (  0.685467,  0.000374, -0.000076 )     1.10268569
  WF centre and spread    9  ( -0.000000,  0.000000,  0.000000 )     0.41116641
  Sum of centres and spreads ( -0.000000,  0.000000,  0.000000 )     7.84961251
 
    399     0.823E-06     0.0000334906        7.8496125143      16.51  <-- CONV
        O_D=      0.0145249 O_OD=      1.8883715 O_TOT=      7.8496125 <-- SPRD
 Delta: O_D=  0.6372629E-06 O_OD=  0.1853865E-06 O_TOT=  0.8226494E-06 <-- DLTA
 ------------------------------------------------------------------------------
 Cycle:    400
  WF centre and spread    1  (  0.000374, -0.685467, -0.000222 )     1.10268632
  WF centre and spread    2  (  0.000076, -0.000222,  0.685467 )     1.10268485
  WF centre and spread    3  ( -0.685467, -0.000374,  0.000076 )     1.10268517
  WF centre and spread    4  ( -0.000374,  0.685467,  0.000223 )     1.10268517
  WF centre and spread    5  ( -0.000076,  0.000222, -0.685467 )     1.10268530
  WF centre and spread    6  ( -0.000000,  0.000000,  0.000000 )     0.41116640
  WF centre and spread    7  ( -0.000000,  0.000000,  0.000000 )     0.41116641
  WF centre and spread    8  (  0.685467,  0.000374, -0.000075 )     1.10268566
  WF centre and spread    9  ( -0.000000,  0.000000,  0.000000 )     0.41116639
  Sum of centres and spreads ( -0.000000,  0.000000,  0.000000 )     7.84961166
 
    400    -0.852E-06     0.0005904867        7.8496116625      16.55  <-- CONV
        O_D=      0.0145242 O_OD=      1.8883713 O_TOT=      7.8496117 <-- SPRD
 Delta: O_D= -0.6665023E-06 O_OD= -0.1853075E-06 O_TOT= -0.8518098E-06 <-- DLTA
 ------------------------------------------------------------------------------

 Writing checkpoint file Fe.chk... done

 Final State
  WF centre and spread    1  (  0.000374, -0.685467, -0.000222 )     1.10268632
  WF centre and spread    2  (  0.000076, -0.000222,  0.685467 )     1.10268485
  WF centre and spread    3  ( -0.685467, -0.000374,  0.000076 )     1.10268517
  WF centre and spread    4  ( -0.000374,  0.685467,  0.000223 )     1.10268517
  WF centre and spread    5  ( -0.000076,  0.000222, -0.685467 )     1.10268530
  WF centre and spread    6  ( -0.000000,  0.000000,  0.000000 )     0.41116640
  WF centre and spread    7  ( -0.000000,  0.000000,  0.000000 )     0.41116641
  WF centre and spread    8  (  0.685467,  0.000374, -0.000075 )     1.10268566
  WF centre and spread    9  ( -0.000000,  0.000000,  0.000000 )     0.41116639
  Sum of centres and spreads ( -0.000000,  0.000000,  0.000000 )     7.84961166
 
         Spreads (Ang^2)       Omega I      =     5.946716097
        ================       Omega D      =     0.014524230
                               Omega OD     =     1.888371336
    Final Spread (Ang^2)       Omega Total  =     7.849611663
 ------------------------------------------------------------------------------

 Wannier centres written to file Fe_centres.xyz
 Time for wannierise           15.255 (sec)

 Writing checkpoint file Fe.chk... done

 *---------------------------------------------------------------------------*
 |                               PLOTTING                                    |
 *---------------------------------------------------------------------------*
 
 
 Calculating interpolated band-structure
 
 Time to calculate interpolated band structure       1.572 (sec)
 
 Time for plotting              1.741 (sec)
 Total Execution Time          19.292 (sec)

 *===========================================================================*
 |                             TIMING INFORMATION                            |
 *===========================================================================*
 |    Tag                                                Ncalls      Time (s)|
 |---------------------------------------------------------------------------|
 |kmesh: get                                        :         1         0.203|
 |overlap: allocate                                 :         1         0.000|
 |overlap: read                                     :         1         0.843|
 |dis: main                                         :         1         1.205|
 |wann: main                                        :         1        15.255|
 |plot: main                                        :         1         1.741|
 *---------------------------------------------------------------------------*
 
 All done: wannier90 exiting
