 
             +---------------------------------------------------+
             |                                                   |
             |                   WANNIER90                       |
             |                                                   |
             +---------------------------------------------------+
             |                                                   |
             |        Welcome to the Maximally-Localized         |
             |        Generalized Wannier Functions code         |
             |            http://www.wannier.org                 |
             |                                                   |
             |                                                   |
             |  Wannier90 Developer Group:                       |
             |    Giovanni Pizzi    (EPFL)                       |
             |    Valerio Vitale    (Cambridge)                  |
             |    David Vanderbilt  (Rutgers University)         |
             |    Nicola Marzari    (EPFL)                       |
             |    Ivo Souza         (Universidad del Pais Vasco) |
             |    Arash A. Mostofi  (Imperial College London)    |
             |    Jonathan R. Yates (University of Oxford)       |
             |                                                   |
             |  For the full list of Wannier90 3.x authors,      |
             |  please check the code documentation and the      |
             |  README on the GitHub page of the code            |
             |                                                   |
             |                                                   |
             |  Please cite                                      |
             |                                                   |
             |  [ref] "Wannier90 as a community code:            |
             |        new features and applications",            |
             |        G. Pizzi et al., J. Phys. Cond. Matt. 32,  |
             |        165902 (2020).                             |
             |        http://doi.org/10.1088/1361-648X/ab51ff    |
             |                                                   |
             |  in any publications arising from the use of      |
             |  this code. For the method please cite            |
             |                                                   |
             |  [ref] "Maximally Localized Generalised Wannier   |
             |         Functions for Composite Energy Bands"     |
             |         N. Marzari and D. Vanderbilt              |
             |         Phys. Rev. B 56 12847 (1997)              |
             |                                                   |
             |  [ref] "Maximally Localized Wannier Functions     |
             |         for Entangled Energy Bands"               |
             |         I. Souza, N. Marzari and D. Vanderbilt    |
             |         Phys. Rev. B 65 035109 (2001)             |
             |                                                   |
             |                                                   |
             | Copyright (c) 1996-2020                           |
             |        The Wannier90 Developer Group and          |
             |        individual contributors                    |
             |                                                   |
             |      Release: 3.1.0        5th March    2020      |
             |                                                   |
             | This program is free software; you can            |
             | redistribute it and/or modify it under the terms  |
             | of the GNU General Public License as published by |
             | the Free Software Foundation; either version 2 of |
             | the License, or (at your option) any later version|
             |                                                   |
             | This program is distributed in the hope that it   |
             | will be useful, but WITHOUT ANY WARRANTY; without |
             | even the implied warranty of MERCHANTABILITY or   |
             | FITNESS FOR A PARTICULAR PURPOSE. See the GNU     |
             | General Public License for more details.          |
             |                                                   |
             | You should have received a copy of the GNU General|
             | Public License along with this program; if not,   |
             | write to the Free Software Foundation, Inc.,      |
             | 675 Mass Ave, Cambridge, MA 02139, USA.           |
             |                                                   |
             +---------------------------------------------------+
             |    Execution started on  8Nov2023 at 10:06:57     |
             +---------------------------------------------------+
 
 ******************************************************************************
 * -> Using CODATA 2006 constant values                                       *
 *    (http://physics.nist.gov/cuu/Constants/index.html)                      *
 * -> Using Bohr value from CODATA                                            *
 ******************************************************************************
 

 Running in serial (with serial executable)
 
                                    ------
                                    SYSTEM
                                    ------
 
                              Lattice Vectors (Ang)
                    a_1     1.434996   1.434996   1.434996
                    a_2    -1.434996   1.434996   1.434996
                    a_3    -1.434996  -1.434996   1.434996
 
                   Unit Cell Volume:      11.81986  (Ang^3)
 
                        Reciprocal-Space Vectors (Ang^-1)
                    b_1     2.189269   0.000000   2.189269
                    b_2    -2.189269   2.189269   0.000000
                    b_3     0.000000  -2.189269   2.189269
  
 *----------------------------------------------------------------------------*
 |   Site       Fractional Coordinate          Cartesian Coordinate (Ang)     |
 +----------------------------------------------------------------------------+
 | Fe   1   0.00000   0.00000   0.00000   |    0.00000   0.00000   0.00000    |
 *----------------------------------------------------------------------------*
                                ------------
                                K-POINT GRID
                                ------------
  
             Grid size =  8 x  8 x  8      Total points =  512
  
  
 *---------------------------------- MAIN ------------------------------------*
 |  Number of Wannier Functions               :                 9             |
 |  Number of Objective Wannier Functions     :                 9             |
 |  Number of input Bloch states              :                14             |
 |  Output verbosity (1=low, 5=high)          :                 1             |
 |  Timing Level (1=low, 5=high)              :                 1             |
 |  Optimisation (0=memory, 3=speed)          :                 3             |
 |  Length Unit                               :               Ang             |
 |  Post-processing setup (write *.nnkp)      :                 F             |
 |  Using Gamma-only branch of algorithms     :                 F             |
 *----------------------------------------------------------------------------*
 *------------------------------- WANNIERISE ---------------------------------*
 |  Total number of iterations                :               400             |
 |  Number of CG steps before reset           :                 5             |
 |  Trial step length for line search         :             2.000             |
 |  Convergence tolerence                     :         0.100E-09             |
 |  Convergence window                        :                -1             |
 |  Iterations between writing output         :                 1             |
 |  Iterations between backing up to disk     :               100             |
 |  Write r^2_nm to file                      :                 F             |
 |  Write xyz WF centres to file              :                 T             |
 |  Write on-site energies <0n|H|0n> to file  :                 F             |
 |  Use guiding centre to control phases      :                 F             |
 |  Use phases for initial projections        :                 F             |
 *----------------------------------------------------------------------------*
 *------------------------------- DISENTANGLE --------------------------------*
 |  Using band disentanglement                :                 T             |
 |  Total number of iterations                :               500             |
 |  Mixing ratio                              :             1.000             |
 |  Convergence tolerence                     :         1.000E-10             |
 |  Convergence window                        :                 3             |
 *----------------------------------------------------------------------------*
 *-------------------------------- PLOTTING ----------------------------------*
 |  Plotting interpolated bandstructure       :                 T             |
 |   Number of K-path sections                :                 9             |
 |   Divisions along first K-path section     :               100             |
 |   Output format                            :           gnuplot             |
 |   Output mode                              :               s-k             |
 *----------------------------------------------------------------------------*
 |   K-space path sections:                                                   |
 |    From: G       0.000  0.000  0.000     To: H       0.500 -0.500 -0.500   |
 |    From: H       0.500 -0.500 -0.500     To: P       0.750  0.250 -0.250   |
 |    From: P       0.750  0.250 -0.250     To: N       0.500  0.000 -0.500   |
 |    From: N       0.500  0.000 -0.500     To: G       0.000  0.000  0.000   |
 |    From: G       0.000  0.000  0.000     To: H       0.500  0.500  0.500   |
 |    From: H       0.500  0.500  0.500     To: N       0.500  0.000  0.000   |
 |    From: N       0.500  0.000  0.000     To: G       0.000  0.000  0.000   |
 |    From: G       0.000  0.000  0.000     To: P       0.750  0.250 -0.250   |
 |    From: P       0.750  0.250 -0.250     To: N       0.500  0.000  0.000   |
 *----------------------------------------------------------------------------*
 Time to read parameters        0.030 (sec)

 *---------------------------------- K-MESH ----------------------------------*
 +----------------------------------------------------------------------------+
 |                    Distance to Nearest-Neighbour Shells                    |
 |                    ------------------------------------                    |
 |          Shell             Distance (Ang^-1)          Multiplicity         |
 |          -----             -----------------          ------------         |
 |             1                   0.387012                     12            |
 |             2                   0.547317                      6            |
 |             3                   0.670324                     24            |
 |             4                   0.774023                     12            |
 |             5                   0.865384                     24            |
 |             6                   0.947981                      8            |
 |             7                   1.023937                     48            |
 |             8                   1.094634                      6            |
 |             9                   1.161035                     36            |
 |            10                   1.223838                     24            |
 |            11                   1.283573                     24            |
 |            12                   1.340648                     24            |
 |            13                   1.395391                     72            |
 |            14                   1.498890                     48            |
 |            15                   1.548047                     12            |
 |            16                   1.595690                     48            |
 |            17                   1.641952                     30            |
 |            18                   1.686945                     72            |
 |            19                   1.730769                     24            |
 |            20                   1.773510                     48            |
 |            21                   1.815246                     24            |
 |            22                   1.856043                     48            |
 |            23                   1.895962                      8            |
 |            24                   1.935059                     84            |
 |            25                   1.973380                     24            |
 |            26                   2.010972                     96            |
 |            27                   2.047873                     48            |
 |            28                   2.084122                     24            |
 |            29                   2.154790                     96            |
 |            30                   2.189269                      6            |
 |            31                   2.223213                     96            |
 |            32                   2.256647                     48            |
 |            33                   2.289592                     48            |
 |            34                   2.322070                     36            |
 |            35                   2.354100                    120            |
 |            36                   2.385700                     24            |
 +----------------------------------------------------------------------------+
 | The b-vectors are chosen automatically                                     |
 | The following shells are used:   1                                         |
 +----------------------------------------------------------------------------+
 |                        Shell   # Nearest-Neighbours                        |
 |                        -----   --------------------                        |
 |                          1              12                                 |
 +----------------------------------------------------------------------------+
 | Completeness relation is fully satisfied [Eq. (B1), PRB 56, 12847 (1997)]  |
 +----------------------------------------------------------------------------+
 |                  b_k Vectors (Ang^-1) and Weights (Ang^2)                  |
 |                  ----------------------------------------                  |
 |            No.         b_k(x)      b_k(y)      b_k(z)        w_b           |
 |            ---        --------------------------------     --------        |
 |             1         0.000000   -0.273659    0.273659     1.669136        |
 |             2        -0.273659    0.273659    0.000000     1.669136        |
 |             3        -0.273659    0.000000    0.273659     1.669136        |
 |             4         0.273659    0.000000    0.273659     1.669136        |
 |             5         0.000000    0.273659    0.273659     1.669136        |
 |             6         0.000000    0.273659   -0.273659     1.669136        |
 |             7         0.273659    0.273659    0.000000     1.669136        |
 |             8         0.273659   -0.273659    0.000000     1.669136        |
 |             9         0.273659    0.000000   -0.273659     1.669136        |
 |            10        -0.273659    0.000000   -0.273659     1.669136        |
 |            11        -0.273659   -0.273659    0.000000     1.669136        |
 |            12         0.000000   -0.273659   -0.273659     1.669136        |
 +----------------------------------------------------------------------------+
 |                           b_k Directions (Ang^-1)                          |
 |                           -----------------------                          |
 |            No.           x           y           z                         |
 |            ---        --------------------------------                     |
 |             1         0.000000   -0.273659    0.273659                     |
 |             2        -0.273659    0.273659    0.000000                     |
 |             3        -0.273659    0.000000    0.273659                     |
 |             4         0.273659    0.000000    0.273659                     |
 |             5         0.000000    0.273659    0.273659                     |
 |             6         0.273659    0.273659    0.000000                     |
 +----------------------------------------------------------------------------+
  
 Time to get kmesh              0.203 (sec)
 *============================================================================*
 |                              MEMORY ESTIMATE                               |
 |         Maximum RAM allocated during each phase of the calculation         |
 *============================================================================*
 |                        Disentanglement           29.03 Mb                  |
 |                            Wannierise:           21.16 Mb                  |
 |                          plot_wannier:           21.16 Mb                  |
 *----------------------------------------------------------------------------*
  
 Starting a new Wannier90 calculation ...


 Reading overlaps from Fe.mmn    :  Created on  8Nov2023 at 10: 1:45

 Reading projections from Fe.amn :  Created on  8Nov2023 at 10: 1:43

 Time to read overlaps          0.838 (sec)

 *------------------------------- DISENTANGLE --------------------------------*
 +----------------------------------------------------------------------------+
 |                              Energy  Windows                               |
 |                              ---------------                               |
 |                   Outer:    4.55487  to   70.00000  (eV)                   |
 |                   Inner:    4.55487  to   30.00000  (eV)                   |
 +----------------------------------------------------------------------------+
   Number of target bands to extract:    9

                   Unitarised projection of Wannier functions                  
                   ------------------------------------------                  
   A_mn = <psi_m|g_n> --> S = A.A^+ --> U = S^-1/2.A
   In dis_project... done
   Using an inner window (linner = T)
   In dis_proj_froz... done

                   Extraction of optimally-connected subspace                  
                   ------------------------------------------                  
 +---------------------------------------------------------------------+<-- DIS
 |  Iter     Omega_I(i-1)      Omega_I(i)      Delta (frac.)    Time   |<-- DIS
 +---------------------------------------------------------------------+<-- DIS
       1       7.84571913       6.81227089       1.517E-01      0.00    <-- DIS
       2       6.66789285       6.34548595       5.081E-02      0.03    <-- DIS
       3       6.28656961       6.14805440       2.253E-02      0.05    <-- DIS
       4       6.12063306       6.05469056       1.089E-02      0.08    <-- DIS
       5       6.04097172       6.00740352       5.588E-03      0.11    <-- DIS
       6       6.00014354       5.98213993       3.010E-03      0.13    <-- DIS
       7       5.97813143       5.96809217       1.682E-03      0.16    <-- DIS
       8       5.96580996       5.96005419       9.657E-04      0.19    <-- DIS
       9       5.95872685       5.95536331       5.648E-04      0.21    <-- DIS
      10       5.95458015       5.95258922       3.345E-04      0.24    <-- DIS
      11       5.95212268       5.95093417       1.997E-04      0.27    <-- DIS
      12       5.95065449       5.94994101       1.199E-04      0.29    <-- DIS
      13       5.94977264       5.94934273       7.226E-05      0.32    <-- DIS
      14       5.94924110       5.94898141       4.365E-05      0.35    <-- DIS
      15       5.94891994       5.94876282       2.641E-05      0.37    <-- DIS
      16       5.94872560       5.94863043       1.600E-05      0.40    <-- DIS
      17       5.94860787       5.94855018       9.699E-06      0.43    <-- DIS
      18       5.94853650       5.94850151       5.882E-06      0.45    <-- DIS
      19       5.94849321       5.94847198       3.569E-06      0.48    <-- DIS
      20       5.94846694       5.94845405       2.166E-06      0.51    <-- DIS
      21       5.94845100       5.94844317       1.315E-06      0.53    <-- DIS
      22       5.94844132       5.94843657       7.984E-07      0.56    <-- DIS
      23       5.94843544       5.94843256       4.848E-07      0.58    <-- DIS
      24       5.94843187       5.94843012       2.944E-07      0.61    <-- DIS
      25       5.94842971       5.94842864       1.788E-07      0.64    <-- DIS
      26       5.94842839       5.94842774       1.086E-07      0.67    <-- DIS
      27       5.94842759       5.94842720       6.594E-08      0.69    <-- DIS
      28       5.94842711       5.94842687       4.005E-08      0.72    <-- DIS
      29       5.94842681       5.94842667       2.432E-08      0.74    <-- DIS
      30       5.94842663       5.94842654       1.477E-08      0.77    <-- DIS
      31       5.94842652       5.94842647       8.973E-09      0.80    <-- DIS
      32       5.94842646       5.94842642       5.450E-09      0.82    <-- DIS
      33       5.94842642       5.94842640       3.310E-09      0.85    <-- DIS
      34       5.94842639       5.94842638       2.011E-09      0.88    <-- DIS
      35       5.94842638       5.94842637       1.221E-09      0.90    <-- DIS
      36       5.94842637       5.94842636       7.418E-10      0.93    <-- DIS
      37       5.94842636       5.94842636       4.506E-10      0.96    <-- DIS
      38       5.94842636       5.94842636       2.737E-10      0.98    <-- DIS
      39       5.94842636       5.94842636       1.662E-10      1.01    <-- DIS
      40       5.94842636       5.94842636       1.010E-10      1.04    <-- DIS
      41       5.94842636       5.94842636       6.133E-11      1.06    <-- DIS
      42       5.94842636       5.94842636       3.725E-11      1.09    <-- DIS
      43       5.94842636       5.94842636       2.263E-11      1.12    <-- DIS

             <<<      Delta < 1.000E-10  over  3 iterations     >>>
             <<< Disentanglement convergence criteria satisfied >>>

        Final Omega_I     5.94842636 (Ang^2)

 +----------------------------------------------------------------------------+

 Time to disentangle bands      1.205 (sec)

 Writing checkpoint file Fe.chk... done

 
 *------------------------------- WANNIERISE ---------------------------------*
 +--------------------------------------------------------------------+<-- CONV
 | Iter  Delta Spread     RMS Gradient      Spread (Ang^2)      Time  |<-- CONV
 +--------------------------------------------------------------------+<-- CONV
 
 ------------------------------------------------------------------------------
 Initial State
  WF centre and spread    1  ( -0.000000,  0.000000, -0.000000 )     2.24189617
  WF centre and spread    2  (  0.000000,  0.000000,  0.000000 )     2.32620076
  WF centre and spread    3  (  0.000000, -0.000000,  0.000000 )     2.32620070
  WF centre and spread    4  ( -0.000000, -0.000000, -0.000000 )     2.32620066
  WF centre and spread    5  ( -0.000000, -0.000000,  0.000000 )     0.54382092
  WF centre and spread    6  (  0.000000,  0.000000, -0.000000 )     0.51804939
  WF centre and spread    7  (  0.000000,  0.000000,  0.000000 )     0.51804939
  WF centre and spread    8  (  0.000000, -0.000000, -0.000000 )     0.54382092
  WF centre and spread    9  ( -0.000000, -0.000000, -0.000000 )     0.51804939
  Sum of centres and spreads ( -0.000000, -0.000000,  0.000000 )    11.86228831
 
      0     0.119E+02     0.0000000000       11.8622883100       1.20  <-- CONV
        O_D=      0.0000000 O_OD=      5.9138620 O_TOT=     11.8622883 <-- SPRD
 ------------------------------------------------------------------------------
 Cycle:      1
  WF centre and spread    1  ( -0.000000,  0.000000, -0.000000 )     1.87287779
  WF centre and spread    2  (  0.000000,  0.000000,  0.000000 )     2.24910762
  WF centre and spread    3  (  0.000000, -0.000000,  0.000000 )     2.24906319
  WF centre and spread    4  ( -0.000000, -0.000000, -0.000000 )     2.24906320
  WF centre and spread    5  ( -0.000000, -0.000000, -0.000000 )     0.51078350
  WF centre and spread    6  (  0.000000,  0.000000, -0.000000 )     0.45240064
  WF centre and spread    7  (  0.000000,  0.000000,  0.000000 )     0.45240063
  WF centre and spread    8  ( -0.000000, -0.000000, -0.000000 )     0.51078380
  WF centre and spread    9  (  0.000000,  0.000000, -0.000000 )     0.45239974
  Sum of centres and spreads ( -0.000000, -0.000000,  0.000000 )    10.99888012
 
      1    -0.863E+00     0.2226907229       10.9988801157       1.24  <-- CONV
        O_D=      0.0000000 O_OD=      5.0504538 O_TOT=     10.9988801 <-- SPRD
 Delta: O_D=  0.1765974E-10 O_OD= -0.8634082E+00 O_TOT= -0.8634082E+00 <-- DLTA
 ------------------------------------------------------------------------------
 Cycle:      2
  WF centre and spread    1  ( -0.000000,  0.000000, -0.000000 )     1.70814768
  WF centre and spread    2  (  0.000000,  0.000000,  0.000000 )     2.20367299
  WF centre and spread    3  (  0.000000, -0.000000,  0.000000 )     2.20366640
  WF centre and spread    4  ( -0.000000, -0.000000, -0.000000 )     2.20366638
  WF centre and spread    5  ( -0.000000,  0.000000, -0.000000 )     0.50408852
  WF centre and spread    6  (  0.000000, -0.000000, -0.000000 )     0.43570973
  WF centre and spread    7  (  0.000000,  0.000000,  0.000000 )     0.43570972
  WF centre and spread    8  ( -0.000000,  0.000000,  0.000000 )     0.50408631
  WF centre and spread    9  (  0.000000,  0.000000, -0.000000 )     0.43570976
  Sum of centres and spreads ( -0.000000, -0.000000,  0.000000 )    10.63445750
 
      2    -0.364E+00     0.2684158492       10.6344574972       1.28  <-- CONV
        O_D=      0.0000000 O_OD=      4.6860311 O_TOT=     10.6344575 <-- SPRD
 Delta: O_D= -0.1457773E-10 O_OD= -0.3644226E+00 O_TOT= -0.3644226E+00 <-- DLTA
 ------------------------------------------------------------------------------
 Cycle:      3
  WF centre and spread    1  ( -0.000000,  0.000000, -0.000000 )     1.68473680
  WF centre and spread    2  (  0.000000,  0.000000,  0.000000 )     2.19488858
  WF centre and spread    3  (  0.000000, -0.000000,  0.000000 )     2.19489126
  WF centre and spread    4  ( -0.000000, -0.000000, -0.000000 )     2.19489123
  WF centre and spread    5  ( -0.000000,  0.000000, -0.000000 )     0.49882732
  WF centre and spread    6  (  0.000000, -0.000000, -0.000000 )     0.43210165
  WF centre and spread    7  (  0.000000,  0.000000,  0.000000 )     0.43210165
  WF centre and spread    8  ( -0.000000,  0.000000,  0.000000 )     0.49882618
  WF centre and spread    9  (  0.000000, -0.000000, -0.000000 )     0.43210237
  Sum of centres and spreads ( -0.000000, -0.000000,  0.000000 )    10.56336704
 
      3    -0.711E-01     0.1139586504       10.5633670381       1.32  <-- CONV
        O_D=      0.0000000 O_OD=      4.6149407 O_TOT=     10.5633670 <-- SPRD
 Delta: O_D= -0.2253145E-11 O_OD= -0.7109046E-01 O_TOT= -0.7109046E-01 <-- DLTA
 ------------------------------------------------------------------------------
 Cycle:      4
  WF centre and spread    1  ( -0.000000,  0.000000, -0.000000 )     1.68394264
  WF centre and spread    2  (  0.000000,  0.000000,  0.000000 )     2.19173252
  WF centre and spread    3  (  0.000000, -0.000000,  0.000000 )     2.19173030
  WF centre and spread    4  ( -0.000000, -0.000000, -0.000000 )     2.19173028
  WF centre and spread    5  ( -0.000000,  0.000000, -0.000000 )     0.49586056
  WF centre and spread    6  (  0.000000, -0.000000, -0.000000 )     0.43162266
  WF centre and spread    7  ( -0.000000,  0.000000,  0.000000 )     0.43162265
  WF centre and spread    8  ( -0.000000,  0.000000,  0.000000 )     0.49586044
  WF centre and spread    9  (  0.000000,  0.000000, -0.000000 )     0.43162329
  Sum of centres and spreads ( -0.000000, -0.000000,  0.000000 )    10.54572535
 
      4    -0.176E-01     0.0547994595       10.5457253466       1.36  <-- CONV
        O_D=      0.0000000 O_OD=      4.5972990 O_TOT=     10.5457253 <-- SPRD
 Delta: O_D= -0.6851659E-12 O_OD= -0.1764169E-01 O_TOT= -0.1764169E-01 <-- DLTA
 ------------------------------------------------------------------------------
 Cycle:      5
  WF centre and spread    1  ( -0.000000,  0.000000, -0.000000 )     1.68683165
  WF centre and spread    2  (  0.000000,  0.000000,  0.000000 )     2.18945057
  WF centre and spread    3  (  0.000000, -0.000000,  0.000000 )     2.18945395
  WF centre and spread    4  ( -0.000000, -0.000000, -0.000000 )     2.18945392
  WF centre and spread    5  ( -0.000000,  0.000000, -0.000000 )     0.49332242
  WF centre and spread    6  (  0.000000, -0.000000, -0.000000 )     0.43193780
  WF centre and spread    7  ( -0.000000,  0.000000,  0.000000 )     0.43193779
  WF centre and spread    8  ( -0.000000,  0.000000,  0.000000 )     0.49332270
  WF centre and spread    9  (  0.000000,  0.000000, -0.000000 )     0.43193824
  Sum of centres and spreads ( -0.000000, -0.000000,  0.000000 )    10.53764905
 
      5    -0.808E-02     0.0329405213       10.5376490477       1.40  <-- CONV
        O_D=      0.0000000 O_OD=      4.5892227 O_TOT=     10.5376490 <-- SPRD
 Delta: O_D=  0.1049842E-12 O_OD= -0.8076299E-02 O_TOT= -0.8076299E-02 <-- DLTA
 ------------------------------------------------------------------------------
 Cycle:      6
  WF centre and spread    1  ( -0.000000,  0.000000, -0.000000 )     1.68894835
  WF centre and spread    2  (  0.000000,  0.000000,  0.000000 )     2.18807550
  WF centre and spread    3  (  0.000000, -0.000000,  0.000000 )     2.18808789
  WF centre and spread    4  ( -0.000000, -0.000000, -0.000000 )     2.18808787
  WF centre and spread    5  ( -0.000000,  0.000000, -0.000000 )     0.49171903
  WF centre and spread    6  (  0.000000, -0.000000, -0.000000 )     0.43236461
  WF centre and spread    7  ( -0.000000,  0.000000,  0.000000 )     0.43236460
  WF centre and spread    8  ( -0.000000,  0.000000,  0.000000 )     0.49171912
  WF centre and spread    9  (  0.000000,  0.000000, -0.000000 )     0.43236489
  Sum of centres and spreads ( -0.000000, -0.000000,  0.000000 )    10.53373185
 
      6    -0.392E-02     0.0240591117       10.5337318501       1.44  <-- CONV
        O_D=      0.0000000 O_OD=      4.5853055 O_TOT=     10.5337319 <-- SPRD
 Delta: O_D= -0.3492764E-12 O_OD= -0.3917198E-02 O_TOT= -0.3917198E-02 <-- DLTA
 ------------------------------------------------------------------------------
 Cycle:      7
  WF centre and spread    1  ( -0.000000,  0.000000, -0.000000 )     1.68893642
  WF centre and spread    2  (  0.000000,  0.000000,  0.000000 )     2.18785202
  WF centre and spread    3  (  0.000000, -0.000000,  0.000000 )     2.18786413
  WF centre and spread    4  ( -0.000000, -0.000000, -0.000000 )     2.18786411
  WF centre and spread    5  ( -0.000000,  0.000000, -0.000000 )     0.49149743
  WF centre and spread    6  (  0.000000, -0.000000, -0.000000 )     0.43240426
  WF centre and spread    7  ( -0.000000,  0.000000,  0.000000 )     0.43240425
  WF centre and spread    8  ( -0.000000,  0.000000,  0.000000 )     0.49149727
  WF centre and spread    9  (  0.000000,  0.000000, -0.000000 )     0.43240455
  Sum of centres and spreads ( -0.000000, -0.000000,  0.000000 )    10.53272442
 
      7    -0.101E-02     0.0149422988       10.5327244231       1.48  <-- CONV
        O_D=      0.0000000 O_OD=      4.5842981 O_TOT=     10.5327244 <-- SPRD
 Delta: O_D= -0.2288927E-12 O_OD= -0.1007427E-02 O_TOT= -0.1007427E-02 <-- DLTA
 ------------------------------------------------------------------------------
 Cycle:      8
  WF centre and spread    1  ( -0.000000,  0.000000, -0.000000 )     1.68908662
  WF centre and spread    2  (  0.000000,  0.000000,  0.000000 )     2.18771484
  WF centre and spread    3  (  0.000000, -0.000000,  0.000000 )     2.18772657
  WF centre and spread    4  ( -0.000000, -0.000000, -0.000000 )     2.18772654
  WF centre and spread    5  ( -0.000000,  0.000000, -0.000000 )     0.49131107
  WF centre and spread    6  (  0.000000, -0.000000, -0.000000 )     0.43248707
  WF centre and spread    7  ( -0.000000,  0.000000,  0.000000 )     0.43248706
  WF centre and spread    8  ( -0.000000,  0.000000,  0.000000 )     0.49131070
  WF centre and spread    9  (  0.000000,  0.000000, -0.000000 )     0.43248735
  Sum of centres and spreads ( -0.000000, -0.000000,  0.000000 )    10.53233784
 
      8    -0.387E-03     0.0079203772       10.5323378359       1.52  <-- CONV
        O_D=      0.0000000 O_OD=      4.5839115 O_TOT=     10.5323378 <-- SPRD
 Delta: O_D= -0.3172692E-12 O_OD= -0.3865872E-03 O_TOT= -0.3865872E-03 <-- DLTA
 ------------------------------------------------------------------------------
 Cycle:      9
  WF centre and spread    1  ( -0.000000,  0.000000, -0.000000 )     1.68933782
  WF centre and spread    2  (  0.000000,  0.000000,  0.000000 )     2.18759149
  WF centre and spread    3  (  0.000000, -0.000000,  0.000000 )     2.18760308
  WF centre and spread    4  ( -0.000000, -0.000000, -0.000000 )     2.18760305
  WF centre and spread    5  ( -0.000000,  0.000000, -0.000000 )     0.49121062
  WF centre and spread    6  (  0.000000,  0.000000, -0.000000 )     0.43254822
  WF centre and spread    7  ( -0.000000,  0.000000,  0.000000 )     0.43254821
  WF centre and spread    8  ( -0.000000,  0.000000,  0.000000 )     0.49121014
  WF centre and spread    9  (  0.000000,  0.000000, -0.000000 )     0.43254848
  Sum of centres and spreads ( -0.000000, -0.000000,  0.000000 )    10.53220111
 
      9    -0.137E-03     0.0046962056       10.5322011115       1.56  <-- CONV
        O_D=      0.0000000 O_OD=      4.5837748 O_TOT=     10.5322011 <-- SPRD
 Delta: O_D= -0.1627684E-12 O_OD= -0.1367245E-03 O_TOT= -0.1367245E-03 <-- DLTA
 ------------------------------------------------------------------------------
 Cycle:     10
  WF centre and spread    1  ( -0.000000,  0.000000, -0.000000 )     1.68966351
  WF centre and spread    2  (  0.000000,  0.000000,  0.000000 )     2.18748186
  WF centre and spread    3  (  0.000000, -0.000000,  0.000000 )     2.18749380
  WF centre and spread    4  ( -0.000000, -0.000000, -0.000000 )     2.18749378
  WF centre and spread    5  ( -0.000000,  0.000000, -0.000000 )     0.49112797
  WF centre and spread    6  (  0.000000,  0.000000, -0.000000 )     0.43258648
  WF centre and spread    7  ( -0.000000,  0.000000,  0.000000 )     0.43258647
  WF centre and spread    8  ( -0.000000,  0.000000,  0.000000 )     0.49112752
  WF centre and spread    9  (  0.000000,  0.000000, -0.000000 )     0.43258674
  Sum of centres and spreads ( -0.000000, -0.000000,  0.000000 )    10.53214814
 
     10    -0.530E-04     0.0028752417       10.5321481361       1.60  <-- CONV
        O_D=      0.0000000 O_OD=      4.5837218 O_TOT=     10.5321481 <-- SPRD
 Delta: O_D= -0.8397105E-13 O_OD= -0.5297534E-04 O_TOT= -0.5297534E-04 <-- DLTA
 ------------------------------------------------------------------------------
 Cycle:     11
  WF centre and spread    1  ( -0.000000,  0.000000, -0.000000 )     1.68990221
  WF centre and spread    2  (  0.000000,  0.000000,  0.000000 )     2.18742668
  WF centre and spread    3  (  0.000000, -0.000000,  0.000000 )     2.18743937
  WF centre and spread    4  ( -0.000000, -0.000000, -0.000000 )     2.18743934
  WF centre and spread    5  ( -0.000000,  0.000000, -0.000000 )     0.49104477
  WF centre and spread    6  (  0.000000,  0.000000, -0.000000 )     0.43261081
  WF centre and spread    7  ( -0.000000,  0.000000,  0.000000 )     0.43261080
  WF centre and spread    8  ( -0.000000,  0.000000,  0.000000 )     0.49104439
  WF centre and spread    9  (  0.000000,  0.000000, -0.000000 )     0.43261107
  Sum of centres and spreads ( -0.000000, -0.000000,  0.000000 )    10.53212944
 
     11    -0.187E-04     0.0016664452       10.5321294376       1.64  <-- CONV
        O_D=      0.0000000 O_OD=      4.5837031 O_TOT=     10.5321294 <-- SPRD
 Delta: O_D= -0.7067050E-15 O_OD= -0.1869853E-04 O_TOT= -0.1869853E-04 <-- DLTA
 ------------------------------------------------------------------------------
 Cycle:     12
  WF centre and spread    1  ( -0.000000,  0.000000, -0.000000 )     1.68999537
  WF centre and spread    2  (  0.000000,  0.000000,  0.000000 )     2.18740785
  WF centre and spread    3  (  0.000000, -0.000000,  0.000000 )     2.18742119
  WF centre and spread    4  ( -0.000000, -0.000000, -0.000000 )     2.18742116
  WF centre and spread    5  ( -0.000000,  0.000000, -0.000000 )     0.49099867
  WF centre and spread    6  (  0.000000,  0.000000, -0.000000 )     0.43262683
  WF centre and spread    7  ( -0.000000,  0.000000,  0.000000 )     0.43262683
  WF centre and spread    8  ( -0.000000,  0.000000,  0.000000 )     0.49099834
  WF centre and spread    9  (  0.000000,  0.000000, -0.000000 )     0.43262710
  Sum of centres and spreads ( -0.000000, -0.000000,  0.000000 )    10.53212333
 
     12    -0.610E-05     0.0010622257       10.5321233350       1.68  <-- CONV
        O_D=      0.0000000 O_OD=      4.5836970 O_TOT=     10.5321233 <-- SPRD
 Delta: O_D= -0.7266784E-13 O_OD= -0.6102627E-05 O_TOT= -0.6102628E-05 <-- DLTA
 ------------------------------------------------------------------------------
 Cycle:     13
  WF centre and spread    1  ( -0.000000,  0.000000, -0.000000 )     1.68996823
  WF centre and spread    2  (  0.000000,  0.000000,  0.000000 )     2.18740802
  WF centre and spread    3  (  0.000000, -0.000000,  0.000000 )     2.18742171
  WF centre and spread    4  ( -0.000000, -0.000000, -0.000000 )     2.18742169
  WF centre and spread    5  ( -0.000000,  0.000000, -0.000000 )     0.49099934
  WF centre and spread    6  (  0.000000,  0.000000, -0.000000 )     0.43263465
  WF centre and spread    7  ( -0.000000,  0.000000,  0.000000 )     0.43263464
  WF centre and spread    8  ( -0.000000,  0.000000,  0.000000 )     0.49099903
  WF centre and spread    9  (  0.000000,  0.000000, -0.000000 )     0.43263492
  Sum of centres and spreads ( -0.000000, -0.000000,  0.000000 )    10.53212224
 
     13    -0.110E-05     0.0004305025       10.5321222357       1.72  <-- CONV
        O_D=      0.0000000 O_OD=      4.5836959 O_TOT=     10.5321222 <-- SPRD
 Delta: O_D=  0.5437203E-13 O_OD= -0.1099288E-05 O_TOT= -0.1099287E-05 <-- DLTA
 ------------------------------------------------------------------------------
 Cycle:     14
  WF centre and spread    1  ( -0.000000,  0.000000, -0.000000 )     1.68993527
  WF centre and spread    2  (  0.000000,  0.000000,  0.000000 )     2.18740996
  WF centre and spread    3  (  0.000000, -0.000000,  0.000000 )     2.18742414
  WF centre and spread    4  ( -0.000000, -0.000000, -0.000000 )     2.18742412
  WF centre and spread    5  ( -0.000000,  0.000000, -0.000000 )     0.49099805
  WF centre and spread    6  (  0.000000,  0.000000, -0.000000 )     0.43264406
  WF centre and spread    7  ( -0.000000,  0.000000,  0.000000 )     0.43264405
  WF centre and spread    8  ( -0.000000,  0.000000,  0.000000 )     0.49099774
  WF centre and spread    9  (  0.000000,  0.000000, -0.000000 )     0.43264434
  Sum of centres and spreads ( -0.000000, -0.000000,  0.000000 )    10.53212173
 
     14    -0.504E-06     0.0002843976       10.5321217313       1.76  <-- CONV
        O_D=      0.0000000 O_OD=      4.5836954 O_TOT=     10.5321217 <-- SPRD
 Delta: O_D= -0.2205169E-13 O_OD= -0.5043828E-06 O_TOT= -0.5043829E-06 <-- DLTA
 ------------------------------------------------------------------------------
 Cycle:     15
  WF centre and spread    1  ( -0.000000,  0.000000, -0.000000 )     1.68990126
  WF centre and spread    2  ( -0.000000,  0.000000,  0.000000 )     2.18741129
  WF centre and spread    3  (  0.000000, -0.000000,  0.000000 )     2.18742606
  WF centre and spread    4  ( -0.000000, -0.000000, -0.000000 )     2.18742604
  WF centre and spread    5  ( -0.000000,  0.000000, -0.000000 )     0.49099708
  WF centre and spread    6  (  0.000000,  0.000000, -0.000000 )     0.43265421
  WF centre and spread    7  ( -0.000000,  0.000000,  0.000000 )     0.43265420
  WF centre and spread    8  ( -0.000000,  0.000000,  0.000000 )     0.49099679
  WF centre and spread    9  (  0.000000,  0.000000, -0.000000 )     0.43265450
  Sum of centres and spreads ( -0.000000, -0.000000,  0.000000 )    10.53212143
 
     15    -0.298E-06     0.0001929735       10.5321214332       1.79  <-- CONV
        O_D=      0.0000000 O_OD=      4.5836951 O_TOT=     10.5321214 <-- SPRD
 Delta: O_D=  0.2961309E-13 O_OD= -0.2980862E-06 O_TOT= -0.2980862E-06 <-- DLTA
 ------------------------------------------------------------------------------
 Cycle:     16
  WF centre and spread    1  ( -0.000000,  0.000000, -0.000000 )     1.68987376
  WF centre and spread    2  ( -0.000000,  0.000000,  0.000000 )     2.18741053
  WF centre and spread    3  (  0.000001, -0.000000,  0.000000 )     2.18742581
  WF centre and spread    4  ( -0.000000, -0.000001, -0.000000 )     2.18742579
  WF centre and spread    5  ( -0.000000,  0.000000, -0.000000 )     0.49099864
  WF centre and spread    6  (  0.000000,  0.000000, -0.000000 )     0.43266271
  WF centre and spread    7  ( -0.000000,  0.000000,  0.000000 )     0.43266270
  WF centre and spread    8  ( -0.000000,  0.000000, -0.000000 )     0.49099835
  WF centre and spread    9  (  0.000000,  0.000000, -0.000000 )     0.43266300
  Sum of centres and spreads ( -0.000000, -0.000000,  0.000000 )    10.53212128
 
     16    -0.155E-06     0.0001553120       10.5321212787       1.83  <-- CONV
        O_D=      0.0000000 O_OD=      4.5836949 O_TOT=     10.5321213 <-- SPRD
 Delta: O_D=  0.5152115E-13 O_OD= -0.1545179E-06 O_TOT= -0.1545179E-06 <-- DLTA
 ------------------------------------------------------------------------------
 Cycle:     17
  WF centre and spread    1  ( -0.000001,  0.000001, -0.000000 )     1.68983838
  WF centre and spread    2  ( -0.000000,  0.000000,  0.000001 )     2.18740946
  WF centre and spread    3  (  0.000001, -0.000000,  0.000000 )     2.18742529
  WF centre and spread    4  ( -0.000000, -0.000001, -0.000000 )     2.18742527
  WF centre and spread    5  ( -0.000000,  0.000000, -0.000000 )     0.49100249
  WF centre and spread    6  (  0.000000,  0.000000, -0.000000 )     0.43267265
  WF centre and spread    7  ( -0.000000, -0.000000,  0.000000 )     0.43267264
  WF centre and spread    8  ( -0.000000,  0.000000, -0.000000 )     0.49100220
  WF centre and spread    9  (  0.000000,  0.000000, -0.000000 )     0.43267297
  Sum of centres and spreads ( -0.000000, -0.000000,  0.000000 )    10.53212136
 
     17     0.765E-07     0.0001221653       10.5321213552       1.87  <-- CONV
        O_D=      0.0000000 O_OD=      4.5836950 O_TOT=     10.5321214 <-- SPRD
 Delta: O_D=  0.1079659E-11 O_OD=  0.7652501E-07 O_TOT=  0.7652609E-07 <-- DLTA
 ------------------------------------------------------------------------------
 Cycle:     18
  WF centre and spread    1  ( -0.000001,  0.000001, -0.000000 )     1.68984098
  WF centre and spread    2  ( -0.000000,  0.000000,  0.000001 )     2.18740928
  WF centre and spread    3  (  0.000001, -0.000000,  0.000000 )     2.18742510
  WF centre and spread    4  ( -0.000000, -0.000001, -0.000000 )     2.18742508
  WF centre and spread    5  ( -0.000000,  0.000000, -0.000000 )     0.49100209
  WF centre and spread    6  (  0.000000,  0.000000, -0.000000 )     0.43267219
  WF centre and spread    7  ( -0.000000, -0.000000,  0.000000 )     0.43267218
  WF centre and spread    8  ( -0.000000,  0.000000, -0.000000 )     0.49100180
  WF centre and spread    9  (  0.000000,  0.000000, -0.000000 )     0.43267251
  Sum of centres and spreads ( -0.000000, -0.000000,  0.000000 )    10.53212120
 
     18    -0.157E-06     0.0002168166       10.5321211985       1.91  <-- CONV
        O_D=      0.0000000 O_OD=      4.5836948 O_TOT=     10.5321212 <-- SPRD
 Delta: O_D= -0.1028454E-11 O_OD= -0.1567023E-06 O_TOT= -0.1567033E-06 <-- DLTA
 ------------------------------------------------------------------------------
 Cycle:     19
  WF centre and spread    1  ( -0.000001,  0.000001, -0.000001 )     1.68984917
  WF centre and spread    2  ( -0.000000,  0.000000,  0.000001 )     2.18740909
  WF centre and spread    3  (  0.000001, -0.000000,  0.000000 )     2.18742483
  WF centre and spread    4  ( -0.000000, -0.000001, -0.000000 )     2.18742481
  WF centre and spread    5  ( -0.000000,  0.000000, -0.000000 )     0.49100102
  WF centre and spread    6  (  0.000000,  0.000000, -0.000000 )     0.43267040
  WF centre and spread    7  ( -0.000000, -0.000000,  0.000000 )     0.43267039
  WF centre and spread    8  ( -0.000000,  0.000000, -0.000000 )     0.49100073
  WF centre and spread    9  (  0.000000,  0.000000, -0.000000 )     0.43267072
  Sum of centres and spreads ( -0.000000, -0.000000,  0.000000 )    10.53212115
 
     19    -0.500E-07     0.0000878310       10.5321211485       1.95  <-- CONV
        O_D=      0.0000000 O_OD=      4.5836948 O_TOT=     10.5321211 <-- SPRD
 Delta: O_D=  0.2199695E-12 O_OD= -0.5002011E-07 O_TOT= -0.5001989E-07 <-- DLTA
 ------------------------------------------------------------------------------
 Cycle:     20
  WF centre and spread    1  ( -0.000001,  0.000001, -0.000001 )     1.68984919
  WF centre and spread    2  ( -0.000000,  0.000000,  0.000001 )     2.18740909
  WF centre and spread    3  (  0.000001, -0.000000,  0.000000 )     2.18742483
  WF centre and spread    4  ( -0.000000, -0.000001, -0.000000 )     2.18742481
  WF centre and spread    5  ( -0.000000,  0.000000, -0.000000 )     0.49100102
  WF centre and spread    6  (  0.000000,  0.000000, -0.000000 )     0.43267040
  WF centre and spread    7  ( -0.000000, -0.000000,  0.000000 )     0.43267039
  WF centre and spread    8  ( -0.000000,  0.000000, -0.000000 )     0.49100072
  WF centre and spread    9  (  0.000000,  0.000000, -0.000000 )     0.43267071
  Sum of centres and spreads ( -0.000000, -0.000000,  0.000000 )    10.53212115
 
     20    -0.148E-09     0.0000943962       10.5321211484       1.98  <-- CONV
        O_D=      0.0000000 O_OD=      4.5836948 O_TOT=     10.5321211 <-- SPRD
 Delta: O_D= -0.2220930E-14 O_OD= -0.1476774E-09 O_TOT= -0.1476810E-09 <-- DLTA
 ------------------------------------------------------------------------------
 Cycle:     21
  WF centre and spread    1  ( -0.000001,  0.000001, -0.000001 )     1.68985723
  WF centre and spread    2  ( -0.000000,  0.000000,  0.000001 )     2.18740859
  WF centre and spread    3  (  0.000001, -0.000000,  0.000000 )     2.18742428
  WF centre and spread    4  ( -0.000000, -0.000001, -0.000000 )     2.18742426
  WF centre and spread    5  ( -0.000000,  0.000000, -0.000000 )     0.49100071
  WF centre and spread    6  (  0.000000,  0.000000, -0.000000 )     0.43266843
  WF centre and spread    7  ( -0.000000, -0.000000,  0.000000 )     0.43266842
  WF centre and spread    8  ( -0.000000,  0.000000, -0.000000 )     0.49100042
  WF centre and spread    9  (  0.000000,  0.000000, -0.000000 )     0.43266875
  Sum of centres and spreads ( -0.000000, -0.000000,  0.000000 )    10.53212109
 
     21    -0.534E-07     0.0000943069       10.5321210950       2.01  <-- CONV
        O_D=      0.0000000 O_OD=      4.5836947 O_TOT=     10.5321211 <-- SPRD
 Delta: O_D=  0.1583826E-12 O_OD= -0.5338360E-07 O_TOT= -0.5338345E-07 <-- DLTA
 ------------------------------------------------------------------------------
 Cycle:     22
  WF centre and spread    1  ( -0.000001,  0.000001, -0.000001 )     1.68987261
  WF centre and spread    2  ( -0.000000,  0.000000,  0.000001 )     2.18740750
  WF centre and spread    3  (  0.000001, -0.000000,  0.000000 )     2.18742309
  WF centre and spread    4  ( -0.000000, -0.000001, -0.000000 )     2.18742307
  WF centre and spread    5  ( -0.000000,  0.000000, -0.000000 )     0.49100023
  WF centre and spread    6  (  0.000000,  0.000000, -0.000000 )     0.43266477
  WF centre and spread    7  ( -0.000000, -0.000000,  0.000000 )     0.43266476
  WF centre and spread    8  ( -0.000000,  0.000000, -0.000000 )     0.49099992
  WF centre and spread    9  (  0.000000,  0.000000, -0.000000 )     0.43266509
  Sum of centres and spreads (  0.000000, -0.000000,  0.000000 )    10.53212105
 
     22    -0.422E-07     0.0000718417       10.5321210528       2.05  <-- CONV
        O_D=      0.0000000 O_OD=      4.5836947 O_TOT=     10.5321211 <-- SPRD
 Delta: O_D= -0.4952627E-12 O_OD= -0.4221494E-07 O_TOT= -0.4221544E-07 <-- DLTA
 ------------------------------------------------------------------------------
 Cycle:     23
  WF centre and spread    1  ( -0.000001,  0.000001, -0.000001 )     1.68988395
  WF centre and spread    2  ( -0.000000,  0.000000,  0.000001 )     2.18740684
  WF centre and spread    3  (  0.000002, -0.000000,  0.000000 )     2.18742237
  WF centre and spread    4  ( -0.000000, -0.000002, -0.000000 )     2.18742235
  WF centre and spread    5  ( -0.000000,  0.000000, -0.000000 )     0.49099957
  WF centre and spread    6  (  0.000000,  0.000000, -0.000000 )     0.43266212
  WF centre and spread    7  ( -0.000000, -0.000000,  0.000000 )     0.43266211
  WF centre and spread    8  ( -0.000000,  0.000000, -0.000000 )     0.49099926
  WF centre and spread    9  (  0.000000,  0.000000, -0.000000 )     0.43266244
  Sum of centres and spreads (  0.000000, -0.000000,  0.000000 )    10.53212102
 
     23    -0.376E-07     0.0000909536       10.5321210151       2.09  <-- CONV
        O_D=      0.0000000 O_OD=      4.5836947 O_TOT=     10.5321210 <-- SPRD
 Delta: O_D=  0.2682557E-12 O_OD= -0.3764763E-07 O_TOT= -0.3764736E-07 <-- DLTA
 ------------------------------------------------------------------------------
 Cycle:     24
  WF centre and spread    1  ( -0.000001,  0.000001, -0.000001 )     1.68988086
  WF centre and spread    2  ( -0.000000,  0.000000,  0.000002 )     2.18740755
  WF centre and spread    3  (  0.000002, -0.000000,  0.000000 )     2.18742313
  WF centre and spread    4  ( -0.000000, -0.000002, -0.000000 )     2.18742311
  WF centre and spread    5  ( -0.000000,  0.000000, -0.000000 )     0.49099907
  WF centre and spread    6  (  0.000000,  0.000000, -0.000000 )     0.43266274
  WF centre and spread    7  ( -0.000000, -0.000000,  0.000000 )     0.43266273
  WF centre and spread    8  ( -0.000000,  0.000000, -0.000000 )     0.49099874
  WF centre and spread    9  (  0.000000,  0.000000, -0.000000 )     0.43266306
  Sum of centres and spreads (  0.000000, -0.000000,  0.000000 )    10.53212098
 
     24    -0.396E-07     0.0000912482       10.5321209755       2.13  <-- CONV
        O_D=      0.0000000 O_OD=      4.5836946 O_TOT=     10.5321210 <-- SPRD
 Delta: O_D=  0.5229168E-12 O_OD= -0.3960542E-07 O_TOT= -0.3960489E-07 <-- DLTA
 ------------------------------------------------------------------------------
 Cycle:     25
  WF centre and spread    1  ( -0.000001,  0.000001, -0.000001 )     1.68988085
  WF centre and spread    2  ( -0.000000,  0.000000,  0.000002 )     2.18740755
  WF centre and spread    3  (  0.000002, -0.000000,  0.000000 )     2.18742313
  WF centre and spread    4  ( -0.000000, -0.000002, -0.000000 )     2.18742311
  WF centre and spread    5  ( -0.000000,  0.000000, -0.000000 )     0.49099907
  WF centre and spread    6  (  0.000000,  0.000000, -0.000000 )     0.43266274
  WF centre and spread    7  ( -0.000000, -0.000000,  0.000000 )     0.43266273
  WF centre and spread    8  ( -0.000000,  0.000000, -0.000000 )     0.49099874
  WF centre and spread    9  (  0.000000,  0.000000, -0.000000 )     0.43266306
  Sum of centres and spreads (  0.000000, -0.000000,  0.000000 )    10.53212098
 
     25    -0.805E-10     0.0000664149       10.5321209754       2.16  <-- CONV
        O_D=      0.0000000 O_OD=      4.5836946 O_TOT=     10.5321210 <-- SPRD
 Delta: O_D= -0.5254900E-14 O_OD= -0.8049561E-10 O_TOT= -0.8050094E-10 <-- DLTA
 ------------------------------------------------------------------------------
 Cycle:     26
  WF centre and spread    1  ( -0.000002,  0.000002, -0.000001 )     1.68987723
  WF centre and spread    2  ( -0.000000,  0.000000,  0.000002 )     2.18740798
  WF centre and spread    3  (  0.000002, -0.000000,  0.000000 )     2.18742360
  WF centre and spread    4  ( -0.000000, -0.000002, -0.000000 )     2.18742358
  WF centre and spread    5  ( -0.000000,  0.000000, -0.000000 )     0.49099941
  WF centre and spread    6  (  0.000000,  0.000000, -0.000000 )     0.43266325
  WF centre and spread    7  ( -0.000000, -0.000000,  0.000000 )     0.43266325
  WF centre and spread    8  ( -0.000000,  0.000000, -0.000000 )     0.49099907
  WF centre and spread    9  (  0.000000,  0.000000, -0.000000 )     0.43266358
  Sum of centres and spreads (  0.000000, -0.000000,  0.000000 )    10.53212095
 
     26    -0.226E-07     0.0000663155       10.5321209529       2.19  <-- CONV
        O_D=      0.0000000 O_OD=      4.5836946 O_TOT=     10.5321210 <-- SPRD
 Delta: O_D=  0.1261822E-12 O_OD= -0.2256421E-07 O_TOT= -0.2256408E-07 <-- DLTA
 ------------------------------------------------------------------------------
 Cycle:     27
  WF centre and spread    1  ( -0.000002,  0.000002, -0.000002 )     1.68987073
  WF centre and spread    2  ( -0.000000,  0.000000,  0.000002 )     2.18740865
  WF centre and spread    3  (  0.000002, -0.000000,  0.000000 )     2.18742435
  WF centre and spread    4  ( -0.000000, -0.000002, -0.000000 )     2.18742433
  WF centre and spread    5  ( -0.000000,  0.000000, -0.000000 )     0.49100014
  WF centre and spread    6  (  0.000000,  0.000000, -0.000000 )     0.43266421
  WF centre and spread    7  ( -0.000000, -0.000000,  0.000000 )     0.43266420
  WF centre and spread    8  ( -0.000000,  0.000000, -0.000000 )     0.49099979
  WF centre and spread    9  (  0.000000,  0.000000, -0.000000 )     0.43266453
  Sum of centres and spreads (  0.000000, -0.000000,  0.000000 )    10.53212093
 
     27    -0.253E-07     0.0000583539       10.5321209276       2.23  <-- CONV
        O_D=      0.0000000 O_OD=      4.5836946 O_TOT=     10.5321209 <-- SPRD
 Delta: O_D=  0.1185945E-11 O_OD= -0.2528302E-07 O_TOT= -0.2528184E-07 <-- DLTA
 ------------------------------------------------------------------------------
 Cycle:     28
  WF centre and spread    1  ( -0.000003,  0.000003, -0.000002 )     1.68986086
  WF centre and spread    2  ( -0.000000,  0.000000,  0.000003 )     2.18740960
  WF centre and spread    3  (  0.000003, -0.000000,  0.000000 )     2.18742542
  WF centre and spread    4  ( -0.000000, -0.000003, -0.000000 )     2.18742540
  WF centre and spread    5  ( -0.000000,  0.000000, -0.000000 )     0.49100122
  WF centre and spread    6  (  0.000000,  0.000000, -0.000000 )     0.43266575
  WF centre and spread    7  ( -0.000000, -0.000000,  0.000000 )     0.43266574
  WF centre and spread    8  ( -0.000000,  0.000000, -0.000000 )     0.49100083
  WF centre and spread    9  (  0.000000,  0.000000, -0.000000 )     0.43266607
  Sum of centres and spreads (  0.000000, -0.000000,  0.000000 )    10.53212087
 
     28    -0.557E-07     0.0000870326       10.5321208719       2.27  <-- CONV
        O_D=      0.0000000 O_OD=      4.5836945 O_TOT=     10.5321209 <-- SPRD
 Delta: O_D= -0.1621666E-11 O_OD= -0.5566242E-07 O_TOT= -0.5566404E-07 <-- DLTA
 ------------------------------------------------------------------------------
 Cycle:     29
  WF centre and spread    1  ( -0.000005,  0.000005, -0.000004 )     1.68983936
  WF centre and spread    2  ( -0.000000,  0.000000,  0.000005 )     2.18741144
  WF centre and spread    3  (  0.000006,  0.000000,  0.000000 )     2.18742763
  WF centre and spread    4  ( -0.000000, -0.000006, -0.000000 )     2.18742761
  WF centre and spread    5  ( -0.000000,  0.000000, -0.000001 )     0.49100308
  WF centre and spread    6  (  0.000000,  0.000000, -0.000000 )     0.43266963
  WF centre and spread    7  ( -0.000000, -0.000000,  0.000000 )     0.43266962
  WF centre and spread    8  ( -0.000001,  0.000001, -0.000000 )     0.49100251
  WF centre and spread    9  (  0.000000,  0.000000, -0.000000 )     0.43266995
  Sum of centres and spreads (  0.000000, -0.000000,  0.000000 )    10.53212083
 
     29    -0.445E-07     0.0000766958       10.5321208274       2.31  <-- CONV
        O_D=      0.0000000 O_OD=      4.5836945 O_TOT=     10.5321208 <-- SPRD
 Delta: O_D=  0.1666913E-10 O_OD= -0.4450566E-07 O_TOT= -0.4448899E-07 <-- DLTA
 ------------------------------------------------------------------------------
 Cycle:     30
  WF centre and spread    1  ( -0.000005,  0.000005, -0.000004 )     1.68984199
  WF centre and spread    2  ( -0.000000,  0.000000,  0.000005 )     2.18741112
  WF centre and spread    3  (  0.000006,  0.000000,  0.000000 )     2.18742731
  WF centre and spread    4  ( -0.000000, -0.000006, -0.000000 )     2.18742728
  WF centre and spread    5  ( -0.000000,  0.000000, -0.000001 )     0.49100276
  WF centre and spread    6  (  0.000000,  0.000000, -0.000000 )     0.43266923
  WF centre and spread    7  ( -0.000000, -0.000000,  0.000000 )     0.43266923
  WF centre and spread    8  ( -0.000001,  0.000001, -0.000000 )     0.49100219
  WF centre and spread    9  (  0.000000,  0.000000, -0.000000 )     0.43266956
  Sum of centres and spreads (  0.000000, -0.000000,  0.000000 )    10.53212068
 
     30    -0.150E-06     0.0002394403       10.5321206778       2.35  <-- CONV
        O_D=      0.0000000 O_OD=      4.5836943 O_TOT=     10.5321207 <-- SPRD
 Delta: O_D= -0.1430805E-10 O_OD= -0.1496628E-06 O_TOT= -0.1496771E-06 <-- DLTA
 ------------------------------------------------------------------------------
 Cycle:     31
  WF centre and spread    1  ( -0.000005,  0.000005, -0.000004 )     1.68984201
  WF centre and spread    2  ( -0.000000,  0.000000,  0.000005 )     2.18741112
  WF centre and spread    3  (  0.000006,  0.000000,  0.000000 )     2.18742730
  WF centre and spread    4  ( -0.000000, -0.000006, -0.000000 )     2.18742728
  WF centre and spread    5  ( -0.000000,  0.000000, -0.000001 )     0.49100276
  WF centre and spread    6  (  0.000000,  0.000000, -0.000000 )     0.43266923
  WF centre and spread    7  ( -0.000000, -0.000000,  0.000000 )     0.43266923
  WF centre and spread    8  ( -0.000001,  0.000001, -0.000000 )     0.49100219
  WF centre and spread    9  (  0.000000,  0.000000, -0.000000 )     0.43266956
  Sum of centres and spreads (  0.000000, -0.000000,  0.000000 )    10.53212068
 
     31    -0.720E-10     0.0000557813       10.5321206777       2.37  <-- CONV
        O_D=      0.0000000 O_OD=      4.5836943 O_TOT=     10.5321207 <-- SPRD
 Delta: O_D= -0.2495023E-14 O_OD= -0.7199841E-10 O_TOT= -0.7199930E-10 <-- DLTA
 ------------------------------------------------------------------------------
 Cycle:     32
  WF centre and spread    1  ( -0.000007,  0.000007, -0.000006 )     1.68985983
  WF centre and spread    2  ( -0.000000,  0.000000,  0.000007 )     2.18740858
  WF centre and spread    3  (  0.000008,  0.000000, -0.000000 )     2.18742471
  WF centre and spread    4  ( -0.000000, -0.000008, -0.000000 )     2.18742469
  WF centre and spread    5  ( -0.000000,  0.000000, -0.000001 )     0.49100117
  WF centre and spread    6  (  0.000000,  0.000000, -0.000000 )     0.43266693
  WF centre and spread    7  ( -0.000000, -0.000000,  0.000000 )     0.43266693
  WF centre and spread    8  ( -0.000001,  0.000001, -0.000000 )     0.49100056
  WF centre and spread    9  (  0.000000,  0.000000, -0.000000 )     0.43266727
  Sum of centres and spreads (  0.000000, -0.000000,  0.000000 )    10.53212068
 
     32     0.161E-08     0.0000557116       10.5321206793       2.41  <-- CONV
        O_D=      0.0000000 O_OD=      4.5836943 O_TOT=     10.5321207 <-- SPRD
 Delta: O_D=  0.1654564E-10 O_OD=  0.1591681E-08 O_TOT=  0.1608225E-08 <-- DLTA
 ------------------------------------------------------------------------------
 Cycle:     33
  WF centre and spread    1  ( -0.000007,  0.000007, -0.000006 )     1.68986069
  WF centre and spread    2  ( -0.000000,  0.000000,  0.000007 )     2.18740840
  WF centre and spread    3  (  0.000008,  0.000000, -0.000000 )     2.18742453
  WF centre and spread    4  ( -0.000000, -0.000008, -0.000000 )     2.18742450
  WF centre and spread    5  ( -0.000000,  0.000000, -0.000001 )     0.49100118
  WF centre and spread    6  (  0.000000,  0.000000, -0.000000 )     0.43266681
  WF centre and spread    7  ( -0.000000, -0.000000,  0.000000 )     0.43266680
  WF centre and spread    8  ( -0.000001,  0.000001, -0.000000 )     0.49100057
  WF centre and spread    9  (  0.000000,  0.000000, -0.000000 )     0.43266714
  Sum of centres and spreads (  0.000000, -0.000000,  0.000000 )    10.53212061
 
     33    -0.722E-07     0.0001649385       10.5321206071       2.45  <-- CONV
        O_D=      0.0000000 O_OD=      4.5836943 O_TOT=     10.5321206 <-- SPRD
 Delta: O_D= -0.1456332E-10 O_OD= -0.7220688E-07 O_TOT= -0.7222145E-07 <-- DLTA
 ------------------------------------------------------------------------------
 Cycle:     34
  WF centre and spread    1  ( -0.000007,  0.000007, -0.000006 )     1.68986172
  WF centre and spread    2  ( -0.000000,  0.000000,  0.000008 )     2.18740829
  WF centre and spread    3  (  0.000009,  0.000000, -0.000000 )     2.18742441
  WF centre and spread    4  ( -0.000000, -0.000009, -0.000000 )     2.18742439
  WF centre and spread    5  ( -0.000000,  0.000000, -0.000001 )     0.49100111
  WF centre and spread    6  (  0.000000,  0.000000, -0.000000 )     0.43266662
  WF centre and spread    7  ( -0.000000, -0.000000,  0.000000 )     0.43266661
  WF centre and spread    8  ( -0.000001,  0.000001, -0.000000 )     0.49100049
  WF centre and spread    9  (  0.000000,  0.000000, -0.000000 )     0.43266695
  Sum of centres and spreads (  0.000000, -0.000000,  0.000000 )    10.53212060
 
     34    -0.107E-07     0.0000407945       10.5321205964       2.49  <-- CONV
        O_D=      0.0000000 O_OD=      4.5836942 O_TOT=     10.5321206 <-- SPRD
 Delta: O_D=  0.3065961E-12 O_OD= -0.1067952E-07 O_TOT= -0.1067922E-07 <-- DLTA
 ------------------------------------------------------------------------------
 Cycle:     35
  WF centre and spread    1  ( -0.000007,  0.000007, -0.000006 )     1.68986172
  WF centre and spread    2  ( -0.000000,  0.000000,  0.000008 )     2.18740828
  WF centre and spread    3  (  0.000009,  0.000000, -0.000000 )     2.18742441
  WF centre and spread    4  ( -0.000000, -0.000009, -0.000000 )     2.18742439
  WF centre and spread    5  ( -0.000000,  0.000000, -0.000001 )     0.49100111
  WF centre and spread    6  (  0.000000,  0.000000, -0.000000 )     0.43266662
  WF centre and spread    7  ( -0.000000, -0.000000,  0.000000 )     0.43266661
  WF centre and spread    8  ( -0.000001,  0.000001, -0.000000 )     0.49100049
  WF centre and spread    9  (  0.000000,  0.000000, -0.000000 )     0.43266695
  Sum of centres and spreads (  0.000000, -0.000000,  0.000000 )    10.53212060
 
     35    -0.539E-10     0.0000347948       10.5321205963       2.51  <-- CONV
        O_D=      0.0000000 O_OD=      4.5836942 O_TOT=     10.5321206 <-- SPRD
 Delta: O_D=  0.3418418E-14 O_OD= -0.5386891E-10 O_TOT= -0.5386624E-10 <-- DLTA
 ------------------------------------------------------------------------------
 Cycle:     36
  WF centre and spread    1  ( -0.000010,  0.000009, -0.000008 )     1.68986638
  WF centre and spread    2  ( -0.000000,  0.000000,  0.000010 )     2.18740798
  WF centre and spread    3  (  0.000012,  0.000000, -0.000000 )     2.18742412
  WF centre and spread    4  ( -0.000000, -0.000011, -0.000000 )     2.18742410
  WF centre and spread    5  ( -0.000000,  0.000000, -0.000001 )     0.49100062
  WF centre and spread    6  (  0.000000,  0.000000, -0.000000 )     0.43266569
  WF centre and spread    7  ( -0.000000, -0.000000,  0.000000 )     0.43266568
  WF centre and spread    8  ( -0.000001,  0.000001, -0.000000 )     0.49099994
  WF centre and spread    9  (  0.000000,  0.000000, -0.000000 )     0.43266603
  Sum of centres and spreads (  0.000000, -0.000000,  0.000000 )    10.53212056
 
     36    -0.387E-07     0.0000347815       10.5321205577       2.55  <-- CONV
        O_D=      0.0000000 O_OD=      4.5836942 O_TOT=     10.5321206 <-- SPRD
 Delta: O_D=  0.5031596E-11 O_OD= -0.3866648E-07 O_TOT= -0.3866145E-07 <-- DLTA
 ------------------------------------------------------------------------------
 Cycle:     37
  WF centre and spread    1  ( -0.000040,  0.000039, -0.000035 )     1.68992062
  WF centre and spread    2  ( -0.000000,  0.000000,  0.000042 )     2.18740496
  WF centre and spread    3  (  0.000048,  0.000000, -0.000000 )     2.18742130
  WF centre and spread    4  ( -0.000000, -0.000046, -0.000000 )     2.18742128
  WF centre and spread    5  ( -0.000001,  0.000001, -0.000005 )     0.49099503
  WF centre and spread    6  (  0.000000,  0.000000, -0.000000 )     0.43265449
  WF centre and spread    7  ( -0.000000, -0.000000,  0.000000 )     0.43265448
  WF centre and spread    8  ( -0.000004,  0.000004, -0.000000 )     0.49099330
  WF centre and spread    9  (  0.000000, -0.000000, -0.000000 )     0.43265486
  Sum of centres and spreads (  0.000002, -0.000002,  0.000001 )    10.53212031
 
     37    -0.247E-06     0.0000597094       10.5321203107       2.59  <-- CONV
        O_D=      0.0000000 O_OD=      4.5836940 O_TOT=     10.5321203 <-- SPRD
 Delta: O_D=  0.1530789E-09 O_OD= -0.2470957E-06 O_TOT= -0.2469426E-06 <-- DLTA
 ------------------------------------------------------------------------------
 Cycle:     38
  WF centre and spread    1  ( -0.000043,  0.000042, -0.000037 )     1.68991243
  WF centre and spread    2  ( -0.000000,  0.000000,  0.000045 )     2.18740579
  WF centre and spread    3  (  0.000052,  0.000000, -0.000000 )     2.18742220
  WF centre and spread    4  ( -0.000000, -0.000050, -0.000000 )     2.18742218
  WF centre and spread    5  ( -0.000001,  0.000001, -0.000006 )     0.49099614
  WF centre and spread    6  (  0.000000,  0.000000, -0.000000 )     0.43265554
  WF centre and spread    7  ( -0.000000, -0.000000,  0.000000 )     0.43265553
  WF centre and spread    8  ( -0.000005,  0.000005, -0.000000 )     0.49099439
  WF centre and spread    9  (  0.000000, -0.000000, -0.000000 )     0.43265591
  Sum of centres and spreads (  0.000002, -0.000002,  0.000001 )    10.53212011
 
     38    -0.196E-06     0.0002154622       10.5321201143       2.63  <-- CONV
        O_D=      0.0000000 O_OD=      4.5836938 O_TOT=     10.5321201 <-- SPRD
 Delta: O_D=  0.2362089E-10 O_OD= -0.1964755E-06 O_TOT= -0.1964519E-06 <-- DLTA
 ------------------------------------------------------------------------------
 Cycle:     39
  WF centre and spread    1  ( -0.000047,  0.000045, -0.000040 )     1.68990296
  WF centre and spread    2  ( -0.000000,  0.000000,  0.000048 )     2.18740659
  WF centre and spread    3  (  0.000056,  0.000000, -0.000000 )     2.18742307
  WF centre and spread    4  ( -0.000001, -0.000054, -0.000000 )     2.18742305
  WF centre and spread    5  ( -0.000002,  0.000002, -0.000006 )     0.49099760
  WF centre and spread    6  (  0.000000,  0.000000, -0.000000 )     0.43265687
  WF centre and spread    7  ( -0.000000, -0.000000,  0.000000 )     0.43265686
  WF centre and spread    8  ( -0.000005,  0.000005, -0.000000 )     0.49099581
  WF centre and spread    9  (  0.000000, -0.000000, -0.000000 )     0.43265723
  Sum of centres and spreads (  0.000002, -0.000002,  0.000002 )    10.53212004
 
     39    -0.715E-07     0.0001243689       10.5321200427       2.67  <-- CONV
        O_D=      0.0000000 O_OD=      4.5836937 O_TOT=     10.5321200 <-- SPRD
 Delta: O_D=  0.3081196E-10 O_OD= -0.7157916E-07 O_TOT= -0.7154834E-07 <-- DLTA
 ------------------------------------------------------------------------------
 Cycle:     40
  WF centre and spread    1  ( -0.000047,  0.000045, -0.000040 )     1.68990294
  WF centre and spread    2  ( -0.000000,  0.000000,  0.000048 )     2.18740659
  WF centre and spread    3  (  0.000056,  0.000000, -0.000000 )     2.18742308
  WF centre and spread    4  ( -0.000001, -0.000054, -0.000000 )     2.18742305
  WF centre and spread    5  ( -0.000002,  0.000002, -0.000006 )     0.49099760
  WF centre and spread    6  (  0.000000,  0.000000, -0.000000 )     0.43265687
  WF centre and spread    7  ( -0.000000, -0.000000,  0.000000 )     0.43265686
  WF centre and spread    8  ( -0.000005,  0.000005, -0.000000 )     0.49099581
  WF centre and spread    9  (  0.000000, -0.000000, -0.000000 )     0.43265724
  Sum of centres and spreads (  0.000002, -0.000002,  0.000002 )    10.53212004
 
     40    -0.145E-09     0.0000695910       10.5321200426       2.69  <-- CONV
        O_D=      0.0000000 O_OD=      4.5836937 O_TOT=     10.5321200 <-- SPRD
 Delta: O_D=  0.1180414E-12 O_OD= -0.1454090E-09 O_TOT= -0.1452900E-09 <-- DLTA
 ------------------------------------------------------------------------------
 Cycle:     41
  WF centre and spread    1  ( -0.000056,  0.000054, -0.000048 )     1.68988386
  WF centre and spread    2  ( -0.000000,  0.000000,  0.000058 )     2.18740774
  WF centre and spread    3  (  0.000067,  0.000000, -0.000000 )     2.18742436
  WF centre and spread    4  ( -0.000001, -0.000065, -0.000000 )     2.18742434
  WF centre and spread    5  ( -0.000002,  0.000002, -0.000007 )     0.49100071
  WF centre and spread    6  (  0.000000,  0.000000,  0.000000 )     0.43265991
  WF centre and spread    7  ( -0.000000, -0.000000,  0.000000 )     0.43265991
  WF centre and spread    8  ( -0.000006,  0.000006, -0.000000 )     0.49099886
  WF centre and spread    9  (  0.000000, -0.000000, -0.000000 )     0.43266028
  Sum of centres and spreads (  0.000002, -0.000002,  0.000002 )    10.53211997
 
     41    -0.695E-07     0.0000695334       10.5321199731       2.73  <-- CONV
        O_D=      0.0000000 O_OD=      4.5836936 O_TOT=     10.5321200 <-- SPRD
 Delta: O_D=  0.9581639E-10 O_OD= -0.6961579E-07 O_TOT= -0.6951997E-07 <-- DLTA
 ------------------------------------------------------------------------------
 Cycle:     42
  WF centre and spread    1  ( -0.000056,  0.000054, -0.000048 )     1.68988381
  WF centre and spread    2  ( -0.000000,  0.000000,  0.000058 )     2.18740774
  WF centre and spread    3  (  0.000067,  0.000000, -0.000000 )     2.18742437
  WF centre and spread    4  ( -0.000001, -0.000065, -0.000000 )     2.18742434
  WF centre and spread    5  ( -0.000002,  0.000002, -0.000007 )     0.49100072
  WF centre and spread    6  (  0.000000,  0.000000,  0.000000 )     0.43265992
  WF centre and spread    7  ( -0.000000, -0.000000,  0.000000 )     0.43265992
  WF centre and spread    8  ( -0.000006,  0.000006, -0.000000 )     0.49099886
  WF centre and spread    9  (  0.000000, -0.000000, -0.000000 )     0.43266029
  Sum of centres and spreads (  0.000002, -0.000002,  0.000002 )    10.53211997
 
     42    -0.173E-09     0.0000682028       10.5321199729       2.76  <-- CONV
        O_D=      0.0000000 O_OD=      4.5836936 O_TOT=     10.5321200 <-- SPRD
 Delta: O_D=  0.3573831E-12 O_OD= -0.1731619E-09 O_TOT= -0.1728058E-09 <-- DLTA
 ------------------------------------------------------------------------------
 Cycle:     43
  WF centre and spread    1  ( -0.000079,  0.000076, -0.000068 )     1.68985378
  WF centre and spread    2  ( -0.000000,  0.000000,  0.000081 )     2.18740928
  WF centre and spread    3  (  0.000094,  0.000000, -0.000000 )     2.18742616
  WF centre and spread    4  ( -0.000001, -0.000091, -0.000001 )     2.18742613
  WF centre and spread    5  ( -0.000003,  0.000003, -0.000010 )     0.49100477
  WF centre and spread    6  (  0.000000,  0.000000,  0.000000 )     0.43266557
  WF centre and spread    7  ( -0.000000, -0.000000,  0.000000 )     0.43266556
  WF centre and spread    8  ( -0.000009,  0.000008, -0.000000 )     0.49100276
  WF centre and spread    9  (  0.000000, -0.000000, -0.000000 )     0.43266593
  Sum of centres and spreads (  0.000003, -0.000003,  0.000003 )    10.53211993
 
     43    -0.438E-07     0.0000681537       10.5321199291       2.79  <-- CONV
        O_D=      0.0000000 O_OD=      4.5836936 O_TOT=     10.5321199 <-- SPRD
 Delta: O_D=  0.3044867E-09 O_OD= -0.4408335E-07 O_TOT= -0.4377886E-07 <-- DLTA
 ------------------------------------------------------------------------------
 Cycle:     44
  WF centre and spread    1  ( -0.000083,  0.000080, -0.000071 )     1.68985559
  WF centre and spread    2  ( -0.000001,  0.000001,  0.000086 )     2.18740908
  WF centre and spread    3  (  0.000099,  0.000000, -0.000000 )     2.18742596
  WF centre and spread    4  ( -0.000001, -0.000095, -0.000001 )     2.18742594
  WF centre and spread    5  ( -0.000003,  0.000003, -0.000011 )     0.49100417
  WF centre and spread    6  (  0.000000,  0.000000,  0.000000 )     0.43266555
  WF centre and spread    7  ( -0.000000, -0.000000,  0.000000 )     0.43266554
  WF centre and spread    8  ( -0.000009,  0.000009, -0.000000 )     0.49100213
  WF centre and spread    9  (  0.000000, -0.000000, -0.000000 )     0.43266591
  Sum of centres and spreads (  0.000003, -0.000003,  0.000003 )    10.53211987
 
     44    -0.557E-07     0.0001394384       10.5321198734       2.83  <-- CONV
        O_D=      0.0000000 O_OD=      4.5836935 O_TOT=     10.5321199 <-- SPRD
 Delta: O_D=  0.6514246E-10 O_OD= -0.5577186E-07 O_TOT= -0.5570672E-07 <-- DLTA
 ------------------------------------------------------------------------------
 Cycle:     45
  WF centre and spread    1  ( -0.000083,  0.000080, -0.000071 )     1.68985559
  WF centre and spread    2  ( -0.000001,  0.000001,  0.000086 )     2.18740908
  WF centre and spread    3  (  0.000099,  0.000000, -0.000000 )     2.18742596
  WF centre and spread    4  ( -0.000001, -0.000095, -0.000001 )     2.18742594
  WF centre and spread    5  ( -0.000003,  0.000003, -0.000011 )     0.49100417
  WF centre and spread    6  (  0.000000,  0.000000,  0.000000 )     0.43266555
  WF centre and spread    7  ( -0.000000, -0.000000,  0.000000 )     0.43266554
  WF centre and spread    8  ( -0.000009,  0.000009, -0.000000 )     0.49100213
  WF centre and spread    9  (  0.000000, -0.000000, -0.000000 )     0.43266591
  Sum of centres and spreads (  0.000003, -0.000003,  0.000003 )    10.53211987
 
     45    -0.837E-10     0.0000621072       10.5321198733       2.86  <-- CONV
        O_D=      0.0000000 O_OD=      4.5836935 O_TOT=     10.5321199 <-- SPRD
 Delta: O_D=  0.3177595E-12 O_OD= -0.8399326E-10 O_TOT= -0.8367529E-10 <-- DLTA
 ------------------------------------------------------------------------------
 Cycle:     46
  WF centre and spread    1  ( -0.000092,  0.000089, -0.000079 )     1.68985920
  WF centre and spread    2  ( -0.000001,  0.000001,  0.000095 )     2.18740854
  WF centre and spread    3  (  0.000110,  0.000001, -0.000000 )     2.18742544
  WF centre and spread    4  ( -0.000001, -0.000106, -0.000001 )     2.18742542
  WF centre and spread    5  ( -0.000003,  0.000003, -0.000012 )     0.49100326
  WF centre and spread    6  (  0.000000,  0.000000,  0.000000 )     0.43266549
  WF centre and spread    7  ( -0.000000, -0.000000,  0.000000 )     0.43266548
  WF centre and spread    8  ( -0.000010,  0.000010, -0.000000 )     0.49100118
  WF centre and spread    9  (  0.000000, -0.000000, -0.000000 )     0.43266585
  Sum of centres and spreads (  0.000003, -0.000003,  0.000003 )    10.53211984
 
     46    -0.301E-07     0.0000620396       10.5321198433       2.90  <-- CONV
        O_D=      0.0000000 O_OD=      4.5836935 O_TOT=     10.5321198 <-- SPRD
 Delta: O_D=  0.1641981E-09 O_OD= -0.3021492E-07 O_TOT= -0.3005073E-07 <-- DLTA
 ------------------------------------------------------------------------------
 Cycle:     47
  WF centre and spread    1  ( -0.000107,  0.000104, -0.000092 )     1.68986405
  WF centre and spread    2  ( -0.000001,  0.000001,  0.000111 )     2.18740780
  WF centre and spread    3  (  0.000128,  0.000001, -0.000001 )     2.18742471
  WF centre and spread    4  ( -0.000001, -0.000124, -0.000001 )     2.18742469
  WF centre and spread    5  ( -0.000004,  0.000003, -0.000014 )     0.49100212
  WF centre and spread    6  (  0.000000,  0.000000,  0.000000 )     0.43266537
  WF centre and spread    7  ( -0.000000, -0.000000,  0.000000 )     0.43266537
  WF centre and spread    8  ( -0.000012,  0.000011, -0.000000 )     0.49099997
  WF centre and spread    9  (  0.000000, -0.000000, -0.000000 )     0.43266574
  Sum of centres and spreads (  0.000004, -0.000004,  0.000004 )    10.53211981
 
     47    -0.347E-07     0.0000561899       10.5321198085       2.93  <-- CONV
        O_D=      0.0000000 O_OD=      4.5836935 O_TOT=     10.5321198 <-- SPRD
 Delta: O_D=  0.3046107E-09 O_OD= -0.3503402E-07 O_TOT= -0.3472941E-07 <-- DLTA
 ------------------------------------------------------------------------------
 Cycle:     48
  WF centre and spread    1  ( -0.000225,  0.000217, -0.000193 )     1.68989438
  WF centre and spread    2  ( -0.000001,  0.000001,  0.000233 )     2.18740304
  WF centre and spread    3  (  0.000268,  0.000001, -0.000001 )     2.18742007
  WF centre and spread    4  ( -0.000002, -0.000259, -0.000001 )     2.18742005
  WF centre and spread    5  ( -0.000008,  0.000007, -0.000029 )     0.49099548
  WF centre and spread    6  (  0.000000,  0.000000,  0.000000 )     0.43266446
  WF centre and spread    7  ( -0.000000, -0.000000,  0.000000 )     0.43266445
  WF centre and spread    8  ( -0.000024,  0.000023, -0.000000 )     0.49099281
  WF centre and spread    9  (  0.000000, -0.000000, -0.000000 )     0.43266484
  Sum of centres and spreads (  0.000009, -0.000008,  0.000008 )    10.53211958
 
     48    -0.224E-06     0.0000732963       10.5321195845       2.97  <-- CONV
        O_D=      0.0000000 O_OD=      4.5836932 O_TOT=     10.5321196 <-- SPRD
 Delta: O_D=  0.3919414E-08 O_OD= -0.2279933E-06 O_TOT= -0.2240739E-06 <-- DLTA
 ------------------------------------------------------------------------------
 Cycle:     49
  WF centre and spread    1  ( -0.000237,  0.000229, -0.000205 )     1.68988875
  WF centre and spread    2  ( -0.000001,  0.000001,  0.000246 )     2.18740392
  WF centre and spread    3  (  0.000283,  0.000001, -0.000001 )     2.18742096
  WF centre and spread    4  ( -0.000002, -0.000273, -0.000001 )     2.18742095
  WF centre and spread    5  ( -0.000008,  0.000008, -0.000031 )     0.49099702
  WF centre and spread    6  (  0.000000,  0.000000,  0.000000 )     0.43266438
  WF centre and spread    7  ( -0.000000, -0.000000,  0.000000 )     0.43266437
  WF centre and spread    8  ( -0.000026,  0.000025, -0.000000 )     0.49099433
  WF centre and spread    9  (  0.000000, -0.000000, -0.000000 )     0.43266476
  Sum of centres and spreads (  0.000009, -0.000009,  0.000008 )    10.53211944
 
[...]
 Delta: O_D= -0.1712295E-06 O_OD=  0.1700398E-06 O_TOT= -0.1189624E-08 <-- DLTA
 ------------------------------------------------------------------------------
 Cycle:    386
  WF centre and spread    1  ( -0.709852,  0.000236, -0.000073 )     1.08935246
  WF centre and spread    2  ( -0.000073,  0.000053,  0.709852 )     1.08935246
  WF centre and spread    3  (  0.709852, -0.000236,  0.000073 )     1.08935259
  WF centre and spread    4  ( -0.000237, -0.709852,  0.000053 )     1.08935253
  WF centre and spread    5  (  0.000073, -0.000053, -0.709852 )     1.08935252
  WF centre and spread    6  (  0.000000, -0.000000,  0.000000 )     0.43234416
  WF centre and spread    7  (  0.000000,  0.000000,  0.000000 )     0.43234424
  WF centre and spread    8  (  0.000236,  0.709852, -0.000053 )     1.08935245
  WF centre and spread    9  (  0.000000, -0.000000, -0.000000 )     0.43234399
  Sum of centres and spreads ( -0.000000, -0.000000,  0.000000 )     7.83314740
 
    386    -0.199E-09     0.0000534839        7.8331474029      16.05  <-- CONV
        O_D=      0.0170277 O_OD=      1.8676934 O_TOT=      7.8331474 <-- SPRD
 Delta: O_D= -0.1537104E-07 O_OD=  0.1517247E-07 O_TOT= -0.1985727E-09 <-- DLTA
 ------------------------------------------------------------------------------
 Cycle:    387
  WF centre and spread    1  ( -0.709852,  0.000234, -0.000072 )     1.08935261
  WF centre and spread    2  ( -0.000072,  0.000052,  0.709852 )     1.08935218
  WF centre and spread    3  (  0.709852, -0.000233,  0.000072 )     1.08935254
  WF centre and spread    4  ( -0.000234, -0.709852,  0.000052 )     1.08935245
  WF centre and spread    5  (  0.000072, -0.000052, -0.709852 )     1.08935282
  WF centre and spread    6  (  0.000000,  0.000000,  0.000000 )     0.43234410
  WF centre and spread    7  ( -0.000000, -0.000000,  0.000000 )     0.43234418
  WF centre and spread    8  (  0.000234,  0.709852, -0.000052 )     1.08935258
  WF centre and spread    9  (  0.000000, -0.000000, -0.000000 )     0.43234393
  Sum of centres and spreads (  0.000000, -0.000000,  0.000000 )     7.83314740
 
    387    -0.699E-08     0.0000536970        7.8331473960      16.09  <-- CONV
        O_D=      0.0170276 O_OD=      1.8676934 O_TOT=      7.8331474 <-- SPRD
 Delta: O_D= -0.5050158E-07 O_OD=  0.4351436E-07 O_TOT= -0.6987226E-08 <-- DLTA
 ------------------------------------------------------------------------------
 Cycle:    388
  WF centre and spread    1  ( -0.709852,  0.000233, -0.000072 )     1.08935261
  WF centre and spread    2  ( -0.000072,  0.000052,  0.709852 )     1.08935218
  WF centre and spread    3  (  0.709852, -0.000232,  0.000072 )     1.08935252
  WF centre and spread    4  ( -0.000233, -0.709852,  0.000052 )     1.08935245
  WF centre and spread    5  (  0.000072, -0.000052, -0.709852 )     1.08935283
  WF centre and spread    6  (  0.000000,  0.000000,  0.000000 )     0.43234410
  WF centre and spread    7  ( -0.000000, -0.000000,  0.000000 )     0.43234418
  WF centre and spread    8  (  0.000233,  0.709852, -0.000052 )     1.08935258
  WF centre and spread    9  (  0.000000, -0.000000, -0.000000 )     0.43234394
  Sum of centres and spreads (  0.000000, -0.000000,  0.000000 )     7.83314739
 
    388    -0.298E-08     0.0000317006        7.8331473930      16.13  <-- CONV
        O_D=      0.0170276 O_OD=      1.8676934 O_TOT=      7.8331474 <-- SPRD
 Delta: O_D=  0.2192382E-07 O_OD= -0.2490456E-07 O_TOT= -0.2980743E-08 <-- DLTA
 ------------------------------------------------------------------------------
 Cycle:    389
  WF centre and spread    1  ( -0.709852,  0.000225, -0.000070 )     1.08935233
  WF centre and spread    2  ( -0.000070,  0.000050,  0.709852 )     1.08935259
  WF centre and spread    3  (  0.709852, -0.000225,  0.000070 )     1.08935247
  WF centre and spread    4  ( -0.000226, -0.709852,  0.000050 )     1.08935253
  WF centre and spread    5  (  0.000070, -0.000050, -0.709852 )     1.08935244
  WF centre and spread    6  (  0.000000,  0.000000,  0.000000 )     0.43234427
  WF centre and spread    7  (  0.000000,  0.000000,  0.000000 )     0.43234435
  WF centre and spread    8  (  0.000226,  0.709852, -0.000050 )     1.08935233
  WF centre and spread    9  (  0.000000, -0.000000, -0.000000 )     0.43234408
  Sum of centres and spreads ( -0.000000, -0.000000, -0.000000 )     7.83314740
 
    389     0.973E-08     0.0000286110        7.8331474027      16.17  <-- CONV
        O_D=      0.0170279 O_OD=      1.8676931 O_TOT=      7.8331474 <-- SPRD
 Delta: O_D=  0.2926104E-06 O_OD= -0.2828850E-06 O_TOT=  0.9725350E-08 <-- DLTA
 ------------------------------------------------------------------------------
 Cycle:    390
  WF centre and spread    1  ( -0.709852,  0.000224, -0.000069 )     1.08935239
  WF centre and spread    2  ( -0.000069,  0.000050,  0.709852 )     1.08935254
  WF centre and spread    3  (  0.709852, -0.000224,  0.000069 )     1.08935252
  WF centre and spread    4  ( -0.000225, -0.709852,  0.000050 )     1.08935253
  WF centre and spread    5  (  0.000069, -0.000050, -0.709852 )     1.08935245
  WF centre and spread    6  (  0.000000, -0.000000,  0.000000 )     0.43234422
  WF centre and spread    7  (  0.000000,  0.000000,  0.000000 )     0.43234430
  WF centre and spread    8  (  0.000225,  0.709852, -0.000050 )     1.08935239
  WF centre and spread    9  (  0.000000, -0.000000, -0.000000 )     0.43234404
  Sum of centres and spreads ( -0.000000, -0.000000,  0.000000 )     7.83314738
 
    390    -0.267E-07     0.0000756906        7.8331473760      16.21  <-- CONV
        O_D=      0.0170278 O_OD=      1.8676933 O_TOT=      7.8331474 <-- SPRD
 Delta: O_D= -0.1565353E-06 O_OD=  0.1298771E-06 O_TOT= -0.2665818E-07 <-- DLTA
 ------------------------------------------------------------------------------
 Cycle:    391
  WF centre and spread    1  ( -0.709852,  0.000224, -0.000069 )     1.08935239
  WF centre and spread    2  ( -0.000069,  0.000050,  0.709852 )     1.08935254
  WF centre and spread    3  (  0.709852, -0.000224,  0.000069 )     1.08935252
  WF centre and spread    4  ( -0.000225, -0.709852,  0.000050 )     1.08935253
  WF centre and spread    5  (  0.000069, -0.000050, -0.709852 )     1.08935245
  WF centre and spread    6  (  0.000000, -0.000000,  0.000000 )     0.43234422
  WF centre and spread    7  (  0.000000,  0.000000,  0.000000 )     0.43234430
  WF centre and spread    8  (  0.000225,  0.709852, -0.000050 )     1.08935239
  WF centre and spread    9  (  0.000000, -0.000000, -0.000000 )     0.43234404
  Sum of centres and spreads ( -0.000000, -0.000000,  0.000000 )     7.83314738
 
    391    -0.894E-11     0.0000179967        7.8331473760      16.23  <-- CONV
        O_D=      0.0170278 O_OD=      1.8676933 O_TOT=      7.8331474 <-- SPRD
 Delta: O_D= -0.9973775E-10 O_OD=  0.9080070E-10 O_TOT= -0.8937739E-11 <-- DLTA
 ------------------------------------------------------------------------------
 Cycle:    392
  WF centre and spread    1  ( -0.709852,  0.000223, -0.000069 )     1.08935241
  WF centre and spread    2  ( -0.000069,  0.000050,  0.709852 )     1.08935252
  WF centre and spread    3  (  0.709852, -0.000223,  0.000069 )     1.08935255
  WF centre and spread    4  ( -0.000224, -0.709852,  0.000050 )     1.08935253
  WF centre and spread    5  (  0.000069, -0.000050, -0.709852 )     1.08935245
  WF centre and spread    6  (  0.000000, -0.000000,  0.000000 )     0.43234420
  WF centre and spread    7  (  0.000000,  0.000000,  0.000000 )     0.43234428
  WF centre and spread    8  (  0.000223,  0.709852, -0.000050 )     1.08935241
  WF centre and spread    9  (  0.000000, -0.000000, -0.000000 )     0.43234402
  Sum of centres and spreads ( -0.000000, -0.000000,  0.000000 )     7.83314737
 
    392    -0.213E-08     0.0000179600        7.8331473739      16.27  <-- CONV
        O_D=      0.0170277 O_OD=      1.8676933 O_TOT=      7.8331474 <-- SPRD
 Delta: O_D= -0.4684154E-07 O_OD=  0.4471050E-07 O_TOT= -0.2131046E-08 <-- DLTA
 ------------------------------------------------------------------------------
 Cycle:    393
  WF centre and spread    1  ( -0.709852,  0.000222, -0.000069 )     1.08935241
  WF centre and spread    2  ( -0.000069,  0.000050,  0.709852 )     1.08935252
  WF centre and spread    3  (  0.709852, -0.000222,  0.000069 )     1.08935256
  WF centre and spread    4  ( -0.000223, -0.709852,  0.000050 )     1.08935253
  WF centre and spread    5  (  0.000069, -0.000050, -0.709852 )     1.08935246
  WF centre and spread    6  (  0.000000, -0.000000,  0.000000 )     0.43234419
  WF centre and spread    7  (  0.000000,  0.000000,  0.000000 )     0.43234428
  WF centre and spread    8  (  0.000223,  0.709852, -0.000050 )     1.08935242
  WF centre and spread    9  (  0.000000, -0.000000, -0.000000 )     0.43234401
  Sum of centres and spreads ( -0.000000, -0.000000,  0.000000 )     7.83314737
 
    393    -0.586E-09     0.0000195979        7.8331473733      16.31  <-- CONV
        O_D=      0.0170277 O_OD=      1.8676933 O_TOT=      7.8331474 <-- SPRD
 Delta: O_D= -0.1509961E-07 O_OD=  0.1451351E-07 O_TOT= -0.5860965E-09 <-- DLTA
 ------------------------------------------------------------------------------
 Cycle:    394
  WF centre and spread    1  ( -0.709852,  0.000222, -0.000069 )     1.08935241
  WF centre and spread    2  ( -0.000069,  0.000050,  0.709852 )     1.08935252
  WF centre and spread    3  (  0.709852, -0.000222,  0.000069 )     1.08935256
  WF centre and spread    4  ( -0.000223, -0.709852,  0.000050 )     1.08935253
  WF centre and spread    5  (  0.000069, -0.000050, -0.709852 )     1.08935246
  WF centre and spread    6  (  0.000000, -0.000000,  0.000000 )     0.43234419
  WF centre and spread    7  (  0.000000,  0.000000,  0.000000 )     0.43234428
  WF centre and spread    8  (  0.000223,  0.709852, -0.000050 )     1.08935242
  WF centre and spread    9  (  0.000000, -0.000000, -0.000000 )     0.43234401
  Sum of centres and spreads ( -0.000000, -0.000000,  0.000000 )     7.83314737
 
    394    -0.213E-10     0.0000234116        7.8331473733      16.33  <-- CONV
        O_D=      0.0170277 O_OD=      1.8676933 O_TOT=      7.8331474 <-- SPRD
 Delta: O_D= -0.1823945E-09 O_OD=  0.1611409E-09 O_TOT= -0.2125322E-10 <-- DLTA
 ------------------------------------------------------------------------------
 Cycle:    395
  WF centre and spread    1  ( -0.709852,  0.000220, -0.000068 )     1.08935241
  WF centre and spread    2  ( -0.000068,  0.000049,  0.709852 )     1.08935251
  WF centre and spread    3  (  0.709852, -0.000219,  0.000068 )     1.08935259
  WF centre and spread    4  ( -0.000220, -0.709852,  0.000049 )     1.08935253
  WF centre and spread    5  (  0.000068, -0.000049, -0.709852 )     1.08935246
  WF centre and spread    6  (  0.000000,  0.000000,  0.000000 )     0.43234418
  WF centre and spread    7  (  0.000000,  0.000000,  0.000000 )     0.43234426
  WF centre and spread    8  (  0.000220,  0.709852, -0.000049 )     1.08935242
  WF centre and spread    9  (  0.000000, -0.000000, -0.000000 )     0.43234400
  Sum of centres and spreads ( -0.000000, -0.000000,  0.000000 )     7.83314737
 
    395    -0.476E-08     0.0000234088        7.8331473685      16.37  <-- CONV
        O_D=      0.0170277 O_OD=      1.8676933 O_TOT=      7.8331474 <-- SPRD
 Delta: O_D= -0.1921429E-07 O_OD=  0.1445106E-07 O_TOT= -0.4763231E-08 <-- DLTA
 ------------------------------------------------------------------------------
 Cycle:    396
  WF centre and spread    1  ( -0.709852,  0.000220, -0.000068 )     1.08935241
  WF centre and spread    2  ( -0.000068,  0.000049,  0.709852 )     1.08935251
  WF centre and spread    3  (  0.709852, -0.000219,  0.000068 )     1.08935259
  WF centre and spread    4  ( -0.000220, -0.709852,  0.000049 )     1.08935253
  WF centre and spread    5  (  0.000068, -0.000049, -0.709852 )     1.08935246
  WF centre and spread    6  (  0.000000,  0.000000,  0.000000 )     0.43234418
  WF centre and spread    7  (  0.000000,  0.000000,  0.000000 )     0.43234426
  WF centre and spread    8  (  0.000220,  0.709852, -0.000049 )     1.08935242
  WF centre and spread    9  (  0.000000, -0.000000, -0.000000 )     0.43234400
  Sum of centres and spreads ( -0.000000, -0.000000,  0.000000 )     7.83314737
 
    396    -0.541E-09     0.0000184586        7.8331473680      16.41  <-- CONV
        O_D=      0.0170277 O_OD=      1.8676933 O_TOT=      7.8331474 <-- SPRD
 Delta: O_D=  0.6446097E-08 O_OD= -0.6987462E-08 O_TOT= -0.5413652E-09 <-- DLTA
 ------------------------------------------------------------------------------
 Cycle:    397
  WF centre and spread    1  ( -0.709852,  0.000219, -0.000068 )     1.08935240
  WF centre and spread    2  ( -0.000068,  0.000049,  0.709852 )     1.08935252
  WF centre and spread    3  (  0.709852, -0.000219,  0.000068 )     1.08935257
  WF centre and spread    4  ( -0.000220, -0.709852,  0.000049 )     1.08935253
  WF centre and spread    5  (  0.000068, -0.000049, -0.709852 )     1.08935245
  WF centre and spread    6  (  0.000000,  0.000000,  0.000000 )     0.43234419
  WF centre and spread    7  (  0.000000,  0.000000,  0.000000 )     0.43234427
  WF centre and spread    8  (  0.000219,  0.709852, -0.000049 )     1.08935241
  WF centre and spread    9  (  0.000000, -0.000000, -0.000000 )     0.43234401
  Sum of centres and spreads ( -0.000000, -0.000000,  0.000000 )     7.83314737
 
    397    -0.173E-08     0.0000165856        7.8331473663      16.45  <-- CONV
        O_D=      0.0170277 O_OD=      1.8676933 O_TOT=      7.8331474 <-- SPRD
 Delta: O_D=  0.2759958E-07 O_OD= -0.2933195E-07 O_TOT= -0.1732376E-08 <-- DLTA
 ------------------------------------------------------------------------------
 Cycle:    398
  WF centre and spread    1  ( -0.709852,  0.000219, -0.000068 )     1.08935240
  WF centre and spread    2  ( -0.000068,  0.000049,  0.709852 )     1.08935253
  WF centre and spread    3  (  0.709852, -0.000218,  0.000068 )     1.08935257
  WF centre and spread    4  ( -0.000219, -0.709852,  0.000049 )     1.08935253
  WF centre and spread    5  (  0.000068, -0.000049, -0.709852 )     1.08935245
  WF centre and spread    6  (  0.000000,  0.000000,  0.000000 )     0.43234419
  WF centre and spread    7  (  0.000000,  0.000000,  0.000000 )     0.43234428
  WF centre and spread    8  (  0.000219,  0.709852, -0.000049 )     1.08935241
  WF centre and spread    9  (  0.000000, -0.000000, -0.000000 )     0.43234401
  Sum of centres and spreads ( -0.000000, -0.000000,  0.000000 )     7.83314737
 
    398    -0.481E-09     0.0000126237        7.8331473658      16.48  <-- CONV
        O_D=      0.0170277 O_OD=      1.8676933 O_TOT=      7.8331474 <-- SPRD
 Delta: O_D=  0.6901759E-08 O_OD= -0.7382715E-08 O_TOT= -0.4809557E-09 <-- DLTA
 ------------------------------------------------------------------------------
 Cycle:    399
  WF centre and spread    1  ( -0.709852,  0.000219, -0.000068 )     1.08935240
  WF centre and spread    2  ( -0.000068,  0.000049,  0.709852 )     1.08935253
  WF centre and spread    3  (  0.709852, -0.000218,  0.000068 )     1.08935257
  WF centre and spread    4  ( -0.000219, -0.709852,  0.000049 )     1.08935253
  WF centre and spread    5  (  0.000068, -0.000049, -0.709852 )     1.08935245
  WF centre and spread    6  (  0.000000,  0.000000,  0.000000 )     0.43234419
  WF centre and spread    7  (  0.000000,  0.000000,  0.000000 )     0.43234428
  WF centre and spread    8  (  0.000219,  0.709852, -0.000049 )     1.08935241
  WF centre and spread    9  (  0.000000, -0.000000, -0.000000 )     0.43234401
  Sum of centres and spreads ( -0.000000, -0.000000,  0.000000 )     7.83314737
 
    399    -0.114E-10     0.0000126950        7.8331473658      16.51  <-- CONV
        O_D=      0.0170277 O_OD=      1.8676933 O_TOT=      7.8331474 <-- SPRD
 Delta: O_D=  0.1122462E-09 O_OD= -0.1236051E-09 O_TOT= -0.1135891E-10 <-- DLTA
 ------------------------------------------------------------------------------
 Cycle:    400
  WF centre and spread    1  ( -0.709852,  0.000217, -0.000067 )     1.08935239
  WF centre and spread    2  ( -0.000067,  0.000049,  0.709852 )     1.08935253
  WF centre and spread    3  (  0.709852, -0.000217,  0.000067 )     1.08935255
  WF centre and spread    4  ( -0.000218, -0.709852,  0.000048 )     1.08935253
  WF centre and spread    5  (  0.000067, -0.000048, -0.709852 )     1.08935245
  WF centre and spread    6  (  0.000000, -0.000000,  0.000000 )     0.43234420
  WF centre and spread    7  (  0.000000,  0.000000,  0.000000 )     0.43234429
  WF centre and spread    8  (  0.000217,  0.709852, -0.000049 )     1.08935240
  WF centre and spread    9  (  0.000000, -0.000000, -0.000000 )     0.43234402
  Sum of centres and spreads ( -0.000000, -0.000000,  0.000000 )     7.83314736
 
    400    -0.227E-08     0.0000126951        7.8331473635      16.55  <-- CONV
        O_D=      0.0170277 O_OD=      1.8676933 O_TOT=      7.8331474 <-- SPRD
 Delta: O_D=  0.1792778E-07 O_OD= -0.2019632E-07 O_TOT= -0.2268541E-08 <-- DLTA
 ------------------------------------------------------------------------------

 Writing checkpoint file Fe.chk... done

 Final State
  WF centre and spread    1  ( -0.709852,  0.000217, -0.000067 )     1.08935239
  WF centre and spread    2  ( -0.000067,  0.000049,  0.709852 )     1.08935253
  WF centre and spread    3  (  0.709852, -0.000217,  0.000067 )     1.08935255
  WF centre and spread    4  ( -0.000218, -0.709852,  0.000048 )     1.08935253
  WF centre and spread    5  (  0.000067, -0.000048, -0.709852 )     1.08935245
  WF centre and spread    6  (  0.000000, -0.000000,  0.000000 )     0.43234420
  WF centre and spread    7  (  0.000000,  0.000000,  0.000000 )     0.43234429
  WF centre and spread    8  (  0.000217,  0.709852, -0.000049 )     1.08935240
  WF centre and spread    9  (  0.000000, -0.000000, -0.000000 )     0.43234402
  Sum of centres and spreads ( -0.000000, -0.000000,  0.000000 )     7.83314736
 
         Spreads (Ang^2)       Omega I      =     5.948426355
        ================       Omega D      =     0.017027740
                               Omega OD     =     1.867693268
    Final Spread (Ang^2)       Omega Total  =     7.833147363
 ------------------------------------------------------------------------------

 Wannier centres written to file Fe_centres.xyz
 Time for wannierise           15.246 (sec)

 Writing checkpoint file Fe.chk... done

 *---------------------------------------------------------------------------*
 |                               PLOTTING                                    |
 *---------------------------------------------------------------------------*
 
 
 Calculating interpolated band-structure
 
 Time to calculate interpolated band structure       1.570 (sec)
 
 Time for plotting              1.736 (sec)
 Total Execution Time          19.275 (sec)

 *===========================================================================*
 |                             TIMING INFORMATION                            |
 *===========================================================================*
 |    Tag                                                Ncalls      Time (s)|
 |---------------------------------------------------------------------------|
 |kmesh: get                                        :         1         0.203|
 |overlap: allocate                                 :         1         0.000|
 |overlap: read                                     :         1         0.838|
 |dis: main                                         :         1         1.205|
 |wann: main                                        :         1        15.246|
 |plot: main                                        :         1         1.736|
 *---------------------------------------------------------------------------*
 
 All done: wannier90 exiting
