
     Program PHONON v.7.2 starts on  8Nov2023 at  9:32:18 

     This program is part of the open-source Quantum ESPRESSO suite
     for quantum simulation of materials; please cite
         "P. Giannozzi et al., J. Phys.:Condens. Matter 21 395502 (2009);
         "P. Giannozzi et al., J. Phys.:Condens. Matter 29 465901 (2017);
         "P. Giannozzi et al., J. Chem. Phys. 152 154105 (2020);
          URL http://www.quantum-espresso.org", 
     in publications or presentations arising from this work. More details at
     http://www.quantum-espresso.org/quote

     Parallel version (MPI), running on    16 processors

     MPI processes distributed on     1 nodes
     225397 MiB available memory on the printing compute node when the environment starts
 
     Reading input from ph-ref.in

     Reading xml data from directory:

     ./tmp/Fe.save/
 
     K-points division:     npool     =      16
     Subspace diagonalization in iterative solution of the eigenvalue problem:
     a serial algorithm will be used

     WARNING: atomic wfc #  5 for atom typeFe has zero norm

     IMPORTANT: XC functional enforced from input :
     Exchange-correlation= PBE
                           (   1   4   3   4   0   0   0)
     Any further DFT definition will be discarded
     Please, verify this is what you really want

 
     G-vector sticks info
     --------------------
     sticks:   dense  smooth     PW     G-vecs:    dense   smooth      PW
     Sum        1335     797    241                30669    14171    2347
 
     Using Slab Decomposition
 
     Reading collected, re-writing distributed wavefunctions in ./tmp/


     Dynamical matrices for ( 2, 2, 2)  uniform grid of q-points
     (   3 q-points):
       N         xq(1)         xq(2)         xq(3) 
       1   0.000000000   0.000000000   0.000000000
       2   0.000000000   0.500000000  -0.500000000
       3   0.000000000   0.000000000  -1.000000000

     Saving dvscf to file. Distribute only q points, not irreducible represetations.

     Calculation of q =    0.0000000   0.0000000   0.0000000

     Phonons on a uniform grid                                                  

     bravais-lattice index     =            3
     lattice parameter (alat)  =       5.4235  a.u.
     unit-cell volume          =      79.7644 (a.u.)^3
     number of atoms/cell      =            1
     number of atomic types    =            1
     kinetic-energy cut-off    =     120.0000  Ry
     charge density cut-off    =     800.0000  Ry
     convergence threshold     =      1.0E-15
     beta                      =       0.7000
     number of iterations used =            4
     Exchange-correlation= PBE
                           (   1   4   3   4   0   0   0)


     celldm(1)=    5.42350  celldm(2)=    0.00000  celldm(3)=    0.00000
     celldm(4)=    0.00000  celldm(5)=    0.00000  celldm(6)=    0.00000

     crystal axes: (cart. coord. in units of alat)
               a(1) = (  0.5000  0.5000  0.5000 )  
               a(2) = ( -0.5000  0.5000  0.5000 )  
               a(3) = ( -0.5000 -0.5000  0.5000 )  

     reciprocal axes: (cart. coord. in units 2 pi/alat)
               b(1) = (  1.0000  0.0000  1.0000 )  
               b(2) = ( -1.0000  1.0000  0.0000 )  
               b(3) = (  0.0000 -1.0000  1.0000 )  


     Atoms inside the unit cell: 

     Cartesian axes

     site n.  atom      mass           positions (alat units)
        1     Fe  55.8500   tau(    1) = (    0.00000    0.00000    0.00000  )

     Computing dynamical matrix for 
                    q = (   0.0000000   0.0000000   0.0000000 )
 
     49 Sym.Ops. (with q -> -q+G )


     G cutoff =  596.0594  (  30669 G-vectors)     FFT grid: ( 45, 45, 45)
     G cutoff =  357.6356  (  14171 G-vectors)  smooth grid: ( 36, 36, 36)

     number of k points=   290  Marzari-Vanderbilt smearing, width (Ry)=  0.0200

     PseudoPot. # 1 for Fe read from file:
     ./Fe.jry.pbe.UPF
     MD5 check sum: 78c02686e98e189cfdefd3b0caba24c3
     Pseudo is Norm-conserving + core correction, Zval =  8.0
     Generated by new atomic code, or converted to UPF format
     Using radial grid of 1165 points,  2 beta functions with: 
                l(1) =   2
                l(2) =   1

     Mode symmetry, O_h (m-3m)  point group:


     Atomic displacements:
     There are    1 irreducible representations

     Representation     1      3 modes -  To be done



     Alpha used in Ewald sum =   2.8000
     PHONON       :      0.83s CPU      1.47s WALL



     Representation #   1 modes #   1   2   3

     Self-consistent Calculation
 
     Pert. #  1: Fermi energy shift (Ry) =    -3.3087E-24     0.0000E+00
     Pert. #  2: Fermi energy shift (Ry) =     2.2058E-24     8.1501E-37
     Pert. #  3: Fermi energy shift (Ry) =    -2.2058E-24    -1.2539E-37

      iter #   1 total cpu time :     4.2 secs   av.it.:  14.9
      thresh= 1.000E-02 alpha_mix =  0.700 |ddv_scf|^2 =  1.985E-07
 
     Pert. #  1: Fermi energy shift (Ry) =     2.2058E-24     1.9592E-39
     Pert. #  2: Fermi energy shift (Ry) =     1.1029E-24     3.1836E-39
     Pert. #  3: Fermi energy shift (Ry) =     2.2058E-24     4.8979E-40

      iter #   2 total cpu time :     8.4 secs   av.it.:  27.3
      thresh= 4.456E-05 alpha_mix =  0.700 |ddv_scf|^2 =  1.503E-09
 
     Pert. #  1: Fermi energy shift (Ry) =     1.1029E-24    -1.7143E-39
     Pert. #  2: Fermi energy shift (Ry) =     3.3087E-24    -1.5306E-39
     Pert. #  3: Fermi energy shift (Ry) =    -2.2058E-24     3.6734E-40

      iter #   3 total cpu time :    12.6 secs   av.it.:  26.4
      thresh= 3.877E-06 alpha_mix =  0.700 |ddv_scf|^2 =  1.147E-10
 
     Pert. #  1: Fermi energy shift (Ry) =    -7.7204E-24    -6.1224E-40
     Pert. #  2: Fermi energy shift (Ry) =     3.8602E-24    -3.6734E-40
     Pert. #  3: Fermi energy shift (Ry) =    -5.5145E-24    -1.2245E-40

      iter #   4 total cpu time :    16.4 secs   av.it.:  24.6
      thresh= 1.071E-06 alpha_mix =  0.700 |ddv_scf|^2 =  8.069E-13
 
     Pert. #  1: Fermi energy shift (Ry) =    -1.1029E-24     0.0000E+00
     Pert. #  2: Fermi energy shift (Ry) =     1.6544E-24     7.3468E-40
     Pert. #  3: Fermi energy shift (Ry) =    -5.5145E-24    -1.2245E-40

      iter #   5 total cpu time :    20.8 secs   av.it.:  27.1
      thresh= 8.983E-08 alpha_mix =  0.700 |ddv_scf|^2 =  1.244E-14
 
     Pert. #  1: Fermi energy shift (Ry) =    -2.2058E-24     0.0000E+00
     Pert. #  2: Fermi energy shift (Ry) =     5.5145E-25     7.3468E-40
     Pert. #  3: Fermi energy shift (Ry) =    -1.1029E-24    -1.2245E-40

      iter #   6 total cpu time :    24.9 secs   av.it.:  27.2
      thresh= 1.115E-08 alpha_mix =  0.700 |ddv_scf|^2 =  3.285E-16

     End of self-consistent calculation

     Convergence has been achieved 
 
     Number of q in the star =    1
     List of q in the star:
          1   0.000000000   0.000000000   0.000000000

     Diagonalizing the dynamical matrix

     q = (    0.000000000   0.000000000   0.000000000 ) 

 **************************************************************************
     freq (    1) =      -0.302957 [THz] =     -10.105554 [cm-1]
     freq (    2) =      -0.302957 [THz] =     -10.105554 [cm-1]
     freq (    3) =      -0.302957 [THz] =     -10.105554 [cm-1]
 **************************************************************************

     Mode symmetry, O_h (m-3m)  point group:

     freq (   1-   3) =        -10.1  [cm-1]   --> T_1u G_15  G_4- I  

     Calculation of q =    0.0000000   0.5000000  -0.5000000
 
     G-vector sticks info
     --------------------
     sticks:   dense  smooth     PW     G-vecs:    dense   smooth      PW
     Sum        1335     797    277                30669    14171    2899
 
     Using Slab Decomposition
 

     Title: 
     Phonons on a uniform grid                                                  


     bravais-lattice index     =            3
     lattice parameter (alat)  =       5.4235  a.u.
     unit-cell volume          =      79.7644 (a.u.)^3
     number of atoms/cell      =            1
     number of atomic types    =            1
     number of electrons       =         8.00
     number of Kohn-Sham states=            8
     kinetic-energy cutoff     =     120.0000  Ry
     charge density cutoff     =     800.0000  Ry
     Exchange-correlation= PBE
                           (   1   4   3   4   0   0   0)

     celldm(1)=   5.423500  celldm(2)=   0.000000  celldm(3)=   0.000000
     celldm(4)=   0.000000  celldm(5)=   0.000000  celldm(6)=   0.000000

     crystal axes: (cart. coord. in units of alat)
               a(1) = (   0.500000   0.500000   0.500000 )  
               a(2) = (  -0.500000   0.500000   0.500000 )  
               a(3) = (  -0.500000  -0.500000   0.500000 )  

     reciprocal axes: (cart. coord. in units 2 pi/alat)
               b(1) = (  1.000000  0.000000  1.000000 )  
               b(2) = ( -1.000000  1.000000  0.000000 )  
               b(3) = (  0.000000 -1.000000  1.000000 )  


     PseudoPot. # 1 for Fe read from file:
     ./Fe.jry.pbe.UPF
     MD5 check sum: 78c02686e98e189cfdefd3b0caba24c3
     Pseudo is Norm-conserving + core correction, Zval =  8.0
     Generated by new atomic code, or converted to UPF format
     Using radial grid of 1165 points,  2 beta functions with: 
                l(1) =   2
                l(2) =   1

     atomic species   valence    mass     pseudopotential
        Fe             8.00    55.85000     Fe( 1.00)

     Starting magnetic structure 
     atomic species   magnetization
        Fe          -1.000

     48 Sym. Ops., with inversion, found



   Cartesian axes

     site n.     atom                  positions (alat units)
         1           Fe  tau(   1) = (   0.0000000   0.0000000   0.0000000  )

     number of k points=  1242  Marzari-Vanderbilt smearing, width (Ry)=  0.0200

     Number of k-points >= 100: set verbosity='high' to print them.

     Dense  grid:    30669 G-vectors     FFT dimensions: (  45,  45,  45)

     Smooth grid:    14171 G-vectors     FFT dimensions: (  36,  36,  36)

     Estimated max dynamical RAM per process >      16.96 MB

     Estimated total dynamical RAM >     271.40 MB

     The potential is recalculated from file :
     ./tmp/_ph0/Fe.q_2/Fe.save/charge-density

     Starting wfcs are    9 atomic wfcs

     Band Structure Calculation
     Davidson diagonalization with overlap

     ethr =  1.25E-10,  avg # of iterations = 12.6

     total cpu time spent up to now is        6.3 secs

     End of band structure calculation

     Number of k-points >= 100: set verbosity='high' to print the bands.

     the Fermi energy is    12.6255 ev

     Writing config to output data dir ./tmp/_ph0/Fe.q_2/Fe.save/

     Phonons on a uniform grid                                                  

     bravais-lattice index     =            3
     lattice parameter (alat)  =       5.4235  a.u.
     unit-cell volume          =      79.7644 (a.u.)^3
     number of atoms/cell      =            1
     number of atomic types    =            1
     kinetic-energy cut-off    =     120.0000  Ry
     charge density cut-off    =     800.0000  Ry
     convergence threshold     =      1.0E-15
     beta                      =       0.7000
     number of iterations used =            4
     Exchange-correlation= PBE
                           (   1   4   3   4   0   0   0)


     celldm(1)=    5.42350  celldm(2)=    0.00000  celldm(3)=    0.00000
     celldm(4)=    0.00000  celldm(5)=    0.00000  celldm(6)=    0.00000

     crystal axes: (cart. coord. in units of alat)
               a(1) = (  0.5000  0.5000  0.5000 )  
               a(2) = ( -0.5000  0.5000  0.5000 )  
               a(3) = ( -0.5000 -0.5000  0.5000 )  

     reciprocal axes: (cart. coord. in units 2 pi/alat)
               b(1) = (  1.0000  0.0000  1.0000 )  
               b(2) = ( -1.0000  1.0000  0.0000 )  
               b(3) = (  0.0000 -1.0000  1.0000 )  


     Atoms inside the unit cell: 

     Cartesian axes

     site n.  atom      mass           positions (alat units)
        1     Fe  55.8500   tau(    1) = (    0.00000    0.00000    0.00000  )

     Computing dynamical matrix for 
                    q = (   0.0000000   0.5000000  -0.5000000 )
 
      9 Sym.Ops. (with q -> -q+G )


     G cutoff =  596.0594  (  30669 G-vectors)     FFT grid: ( 45, 45, 45)
     G cutoff =  357.6356  (  14171 G-vectors)  smooth grid: ( 36, 36, 36)

     number of k points=  2484  Marzari-Vanderbilt smearing, width (Ry)=  0.0200

     PseudoPot. # 1 for Fe read from file:
     ./Fe.jry.pbe.UPF
     MD5 check sum: 78c02686e98e189cfdefd3b0caba24c3
     Pseudo is Norm-conserving + core correction, Zval =  8.0
     Generated by new atomic code, or converted to UPF format
     Using radial grid of 1165 points,  2 beta functions with: 
                l(1) =   2
                l(2) =   1

     Mode symmetry, D_2h (mmm)  point group:


     Atomic displacements:
     There are    3 irreducible representations

     Representation     1      1 modes -  To be done

     Representation     2      1 modes -  To be done

     Representation     3      1 modes -  To be done



     Alpha used in Ewald sum =   2.8000
     PHONON       :     28.24s CPU     32.91s WALL



     Representation #   1 mode #   1

     Self-consistent Calculation

      iter #   1 total cpu time :    36.6 secs   av.it.:  16.4
      thresh= 1.000E-02 alpha_mix =  0.700 |ddv_scf|^2 =  3.987E-06

      iter #   2 total cpu time :    41.6 secs   av.it.:  25.2
      thresh= 1.997E-04 alpha_mix =  0.700 |ddv_scf|^2 =  1.716E-07

      iter #   3 total cpu time :    46.7 secs   av.it.:  24.9
      thresh= 4.143E-05 alpha_mix =  0.700 |ddv_scf|^2 =  1.306E-09

      iter #   4 total cpu time :    51.5 secs   av.it.:  23.7
      thresh= 3.614E-06 alpha_mix =  0.700 |ddv_scf|^2 =  1.491E-11

      iter #   5 total cpu time :    56.6 secs   av.it.:  25.3
      thresh= 3.862E-07 alpha_mix =  0.700 |ddv_scf|^2 =  6.096E-13

      iter #   6 total cpu time :    61.8 secs   av.it.:  25.6
      thresh= 7.807E-08 alpha_mix =  0.700 |ddv_scf|^2 =  3.203E-14

      iter #   7 total cpu time :    66.7 secs   av.it.:  25.5
      thresh= 1.790E-08 alpha_mix =  0.700 |ddv_scf|^2 =  2.148E-16

     End of self-consistent calculation

     Convergence has been achieved 


     Representation #   2 mode #   2

     Self-consistent Calculation

      iter #   1 total cpu time :    70.5 secs   av.it.:  15.5
      thresh= 1.000E-02 alpha_mix =  0.700 |ddv_scf|^2 =  2.243E-06

      iter #   2 total cpu time :    75.4 secs   av.it.:  25.0
      thresh= 1.498E-04 alpha_mix =  0.700 |ddv_scf|^2 =  2.666E-08

      iter #   3 total cpu time :    80.4 secs   av.it.:  24.6
      thresh= 1.633E-05 alpha_mix =  0.700 |ddv_scf|^2 =  1.095E-09

      iter #   4 total cpu time :    84.8 secs   av.it.:  22.9
      thresh= 3.309E-06 alpha_mix =  0.700 |ddv_scf|^2 =  6.075E-12

      iter #   5 total cpu time :    89.9 secs   av.it.:  24.7
      thresh= 2.465E-07 alpha_mix =  0.700 |ddv_scf|^2 =  1.020E-13

      iter #   6 total cpu time :    94.9 secs   av.it.:  24.8
      thresh= 3.193E-08 alpha_mix =  0.700 |ddv_scf|^2 =  5.636E-15

      iter #   7 total cpu time :    99.8 secs   av.it.:  24.8
      thresh= 7.508E-09 alpha_mix =  0.700 |ddv_scf|^2 =  1.065E-16

     End of self-consistent calculation

     Convergence has been achieved 


     Representation #   3 mode #   3

     Self-consistent Calculation

      iter #   1 total cpu time :   104.1 secs   av.it.:  18.6
      thresh= 1.000E-02 alpha_mix =  0.700 |ddv_scf|^2 =  1.029E-04

      iter #   2 total cpu time :   109.1 secs   av.it.:  24.8
      thresh= 1.014E-03 alpha_mix =  0.700 |ddv_scf|^2 =  1.179E-04

      iter #   3 total cpu time :   113.8 secs   av.it.:  23.2
      thresh= 1.086E-03 alpha_mix =  0.700 |ddv_scf|^2 =  4.585E-09

      iter #   4 total cpu time :   118.5 secs   av.it.:  23.6
      thresh= 6.771E-06 alpha_mix =  0.700 |ddv_scf|^2 =  1.435E-10

      iter #   5 total cpu time :   123.3 secs   av.it.:  23.9
      thresh= 1.198E-06 alpha_mix =  0.700 |ddv_scf|^2 =  3.700E-12

      iter #   6 total cpu time :   128.4 secs   av.it.:  24.8
      thresh= 1.924E-07 alpha_mix =  0.700 |ddv_scf|^2 =  1.200E-13

      iter #   7 total cpu time :   133.5 secs   av.it.:  25.5
      thresh= 3.464E-08 alpha_mix =  0.700 |ddv_scf|^2 =  1.138E-15

      iter #   8 total cpu time :   138.3 secs   av.it.:  24.8
      thresh= 3.373E-09 alpha_mix =  0.700 |ddv_scf|^2 =  2.186E-17

     End of self-consistent calculation

     Convergence has been achieved 
 
     Number of q in the star =    6
     List of q in the star:
          1   0.000000000   0.500000000  -0.500000000
          2  -0.500000000  -0.500000000   0.000000000
          3   0.500000000  -0.500000000   0.000000000
          4   0.000000000   0.500000000   0.500000000
          5  -0.500000000   0.000000000   0.500000000
          6  -0.500000000   0.000000000  -0.500000000

     Diagonalizing the dynamical matrix

     q = (    0.000000000   0.500000000  -0.500000000 ) 

 **************************************************************************
     freq (    1) =       5.188779 [THz] =     173.079041 [cm-1]
     freq (    2) =       6.495526 [THz] =     216.667427 [cm-1]
     freq (    3) =       9.501041 [THz] =     316.920607 [cm-1]
 **************************************************************************

     Mode symmetry, D_2h (mmm)  point group:

     freq (   1-   1) =        173.1  [cm-1]   --> B_2u               
     freq (   2-   2) =        216.7  [cm-1]   --> B_1u               
     freq (   3-   3) =        316.9  [cm-1]   --> B_3u               

     Calculation of q =    0.0000000   0.0000000  -1.0000000
 
     G-vector sticks info
     --------------------
     sticks:   dense  smooth     PW     G-vecs:    dense   smooth      PW
     Sum        1335     797    283                30669    14171    3103
 
     Using Slab Decomposition
 

     Title: 
     Phonons on a uniform grid                                                  


     bravais-lattice index     =            3
     lattice parameter (alat)  =       5.4235  a.u.
     unit-cell volume          =      79.7644 (a.u.)^3
     number of atoms/cell      =            1
     number of atomic types    =            1
     number of electrons       =         8.00
     number of Kohn-Sham states=            8
     kinetic-energy cutoff     =     120.0000  Ry
     charge density cutoff     =     800.0000  Ry
     Exchange-correlation= PBE
                           (   1   4   3   4   0   0   0)

     celldm(1)=   5.423500  celldm(2)=   0.000000  celldm(3)=   0.000000
     celldm(4)=   0.000000  celldm(5)=   0.000000  celldm(6)=   0.000000

     crystal axes: (cart. coord. in units of alat)
               a(1) = (   0.500000   0.500000   0.500000 )  
               a(2) = (  -0.500000   0.500000   0.500000 )  
               a(3) = (  -0.500000  -0.500000   0.500000 )  

     reciprocal axes: (cart. coord. in units 2 pi/alat)
               b(1) = (  1.000000  0.000000  1.000000 )  
               b(2) = ( -1.000000  1.000000  0.000000 )  
               b(3) = (  0.000000 -1.000000  1.000000 )  


     PseudoPot. # 1 for Fe read from file:
     ./Fe.jry.pbe.UPF
     MD5 check sum: 78c02686e98e189cfdefd3b0caba24c3
     Pseudo is Norm-conserving + core correction, Zval =  8.0
     Generated by new atomic code, or converted to UPF format
     Using radial grid of 1165 points,  2 beta functions with: 
                l(1) =   2
                l(2) =   1

     atomic species   valence    mass     pseudopotential
        Fe             8.00    55.85000     Fe( 1.00)

     Starting magnetic structure 
     atomic species   magnetization
        Fe          -1.000

     48 Sym. Ops., with inversion, found



   Cartesian axes

     site n.     atom                  positions (alat units)
         1           Fe  tau(   1) = (   0.0000000   0.0000000   0.0000000  )

     number of k points=   290  Marzari-Vanderbilt smearing, width (Ry)=  0.0200

     Number of k-points >= 100: set verbosity='high' to print them.

     Dense  grid:    30669 G-vectors     FFT dimensions: (  45,  45,  45)

     Smooth grid:    14171 G-vectors     FFT dimensions: (  36,  36,  36)

     Estimated max dynamical RAM per process >      16.97 MB

     Estimated total dynamical RAM >     271.47 MB

     The potential is recalculated from file :
     ./tmp/_ph0/Fe.q_3/Fe.save/charge-density

     Starting wfcs are    9 atomic wfcs

     Band Structure Calculation
     Davidson diagonalization with overlap

     ethr =  1.25E-10,  avg # of iterations = 12.3

     total cpu time spent up to now is        8.1 secs

     End of band structure calculation

     Number of k-points >= 100: set verbosity='high' to print the bands.

     the Fermi energy is    12.6255 ev

     Writing config to output data dir ./tmp/_ph0/Fe.q_3/Fe.save/

     Phonons on a uniform grid                                                  

     bravais-lattice index     =            3
     lattice parameter (alat)  =       5.4235  a.u.
     unit-cell volume          =      79.7644 (a.u.)^3
     number of atoms/cell      =            1
     number of atomic types    =            1
     kinetic-energy cut-off    =     120.0000  Ry
     charge density cut-off    =     800.0000  Ry
     convergence threshold     =      1.0E-15
     beta                      =       0.7000
     number of iterations used =            4
     Exchange-correlation= PBE
                           (   1   4   3   4   0   0   0)


     celldm(1)=    5.42350  celldm(2)=    0.00000  celldm(3)=    0.00000
     celldm(4)=    0.00000  celldm(5)=    0.00000  celldm(6)=    0.00000

     crystal axes: (cart. coord. in units of alat)
               a(1) = (  0.5000  0.5000  0.5000 )  
               a(2) = ( -0.5000  0.5000  0.5000 )  
               a(3) = ( -0.5000 -0.5000  0.5000 )  

     reciprocal axes: (cart. coord. in units 2 pi/alat)
               b(1) = (  1.0000  0.0000  1.0000 )  
               b(2) = ( -1.0000  1.0000  0.0000 )  
               b(3) = (  0.0000 -1.0000  1.0000 )  


     Atoms inside the unit cell: 

     Cartesian axes

     site n.  atom      mass           positions (alat units)
        1     Fe  55.8500   tau(    1) = (    0.00000    0.00000    0.00000  )

     Computing dynamical matrix for 
                    q = (   0.0000000   0.0000000  -1.0000000 )
 
     49 Sym.Ops. (with q -> -q+G )


     G cutoff =  596.0594  (  30669 G-vectors)     FFT grid: ( 45, 45, 45)
     G cutoff =  357.6356  (  14171 G-vectors)  smooth grid: ( 36, 36, 36)

     number of k points=   580  Marzari-Vanderbilt smearing, width (Ry)=  0.0200

     PseudoPot. # 1 for Fe read from file:
     ./Fe.jry.pbe.UPF
     MD5 check sum: 78c02686e98e189cfdefd3b0caba24c3
     Pseudo is Norm-conserving + core correction, Zval =  8.0
     Generated by new atomic code, or converted to UPF format
     Using radial grid of 1165 points,  2 beta functions with: 
                l(1) =   2
                l(2) =   1

     Mode symmetry, O_h (m-3m)  point group:


     Atomic displacements:
     There are    1 irreducible representations

     Representation     1      3 modes -  To be done



     Alpha used in Ewald sum =   2.8000
     PHONON       :   2m 6.36s CPU   2m21.07s WALL



     Representation #   1 modes #   1   2   3

     Self-consistent Calculation

      iter #   1 total cpu time :   144.2 secs   av.it.:  17.1
      thresh= 1.000E-02 alpha_mix =  0.700 |ddv_scf|^2 =  1.382E-06

      iter #   2 total cpu time :   148.7 secs   av.it.:  27.2
      thresh= 1.176E-04 alpha_mix =  0.700 |ddv_scf|^2 =  2.799E-07

      iter #   3 total cpu time :   153.1 secs   av.it.:  26.5
      thresh= 5.290E-05 alpha_mix =  0.700 |ddv_scf|^2 =  1.880E-10

      iter #   4 total cpu time :   157.6 secs   av.it.:  25.9
      thresh= 1.371E-06 alpha_mix =  0.700 |ddv_scf|^2 =  1.219E-12

      iter #   5 total cpu time :   162.2 secs   av.it.:  26.8
      thresh= 1.104E-07 alpha_mix =  0.700 |ddv_scf|^2 =  1.269E-13

      iter #   6 total cpu time :   167.0 secs   av.it.:  27.5
      thresh= 3.562E-08 alpha_mix =  0.700 |ddv_scf|^2 =  3.690E-15

      iter #   7 total cpu time :   171.3 secs   av.it.:  27.8
      thresh= 6.075E-09 alpha_mix =  0.700 |ddv_scf|^2 =  4.264E-17

     End of self-consistent calculation

     Convergence has been achieved 
 
     Number of q in the star =    1
     List of q in the star:
          1   0.000000000   0.000000000  -1.000000000

     Diagonalizing the dynamical matrix

     q = (    0.000000000   0.000000000  -1.000000000 ) 

 **************************************************************************
     freq (    1) =       8.974947 [THz] =     299.372002 [cm-1]
     freq (    2) =       8.974947 [THz] =     299.372002 [cm-1]
     freq (    3) =       8.974947 [THz] =     299.372002 [cm-1]
 **************************************************************************

     Mode symmetry, O_h (m-3m)  point group:

     freq (   1-   3) =        299.4  [cm-1]   --> T_1u G_15  G_4-    
 
     init_run     :      0.21s CPU      0.32s WALL (       2 calls)
     electrons    :      7.19s CPU      7.67s WALL (       2 calls)

     Called by init_run:
     wfcinit      :      0.00s CPU      0.01s WALL (       2 calls)
     potinit      :      0.11s CPU      0.21s WALL (       2 calls)
     hinit0       :      0.05s CPU      0.05s WALL (       2 calls)

     Called by electrons:
     c_bands      :      7.18s CPU      7.66s WALL (       2 calls)
     v_of_rho     :      0.14s CPU      0.15s WALL (       3 calls)

     Called by c_bands:
     init_us_2    :      0.51s CPU      0.60s WALL (    2952 calls)
     init_us_2:cp :      0.51s CPU      0.59s WALL (    2952 calls)
     cegterg      :      5.84s CPU      5.91s WALL (     194 calls)

     Called by *egterg:
     cdiaghg      :      0.28s CPU      0.29s WALL (    2698 calls)
     h_psi        :     73.69s CPU     74.98s WALL (   81821 calls)
     g_psi        :      0.05s CPU      0.05s WALL (    2504 calls)

     Called by h_psi:
     h_psi:calbec :      1.56s CPU      1.58s WALL (   81821 calls)
     vloc_psi     :     70.52s CPU     71.77s WALL (   81821 calls)
     add_vuspsi   :      1.04s CPU      1.06s WALL (   81821 calls)

     General routines
     calbec       :      2.56s CPU      2.62s WALL (  163321 calls)
     fft          :      0.98s CPU      1.00s WALL (    1973 calls)
     ffts         :      0.12s CPU      0.13s WALL (     683 calls)
     fftw         :     58.06s CPU     59.24s WALL (  460414 calls)
     interpolate  :      0.24s CPU      0.24s WALL (     256 calls)
     davcio       :      3.59s CPU     14.87s WALL (   12756 calls)
 
     Parallel routines
 
     PHONON       :   2m33.45s CPU   2m51.92s WALL

     INITIALIZATION: 
     phq_setup    :      0.68s CPU      0.82s WALL (       3 calls)
     phq_init     :      1.09s CPU      1.34s WALL (       3 calls)
 
     phq_init     :      1.09s CPU      1.34s WALL (       3 calls)
     set_drhoc    :      0.58s CPU      0.58s WALL (       9 calls)
     init_vloc    :      0.00s CPU      0.00s WALL (       3 calls)
     init_us_1    :      0.03s CPU      0.03s WALL (       3 calls)
     init_us_2    :      0.51s CPU      0.60s WALL (    2952 calls)
 
     DYNAMICAL MATRIX:
     dynmat0      :      0.68s CPU      0.81s WALL (       3 calls)
     dynmat_us    :      0.12s CPU      0.21s WALL (       3 calls)
     d2ionq       :      0.00s CPU      0.00s WALL (       3 calls)
     dynmatcc     :      0.53s CPU      0.54s WALL (       3 calls)
     phqscf       :    143.87s CPU    160.32s WALL (       3 calls)
     dynmatrix    :      0.06s CPU      0.11s WALL (       3 calls)
 
     phqscf       :    143.87s CPU    160.32s WALL (       3 calls)
     solve_linter :    143.62s CPU    159.47s WALL (       5 calls)
     sth_kernel   :    131.99s CPU    139.97s WALL (      35 calls)
     h_prec       :      0.05s CPU      0.06s WALL (    1963 calls)
     apply_dpot_b :      2.29s CPU      2.52s WALL (    2109 calls)
     ortho        :      0.16s CPU      0.17s WALL (    2457 calls)
     cgsolve      :     74.13s CPU     75.47s WALL (    2457 calls)
     incdrhoscf   :      3.05s CPU      3.20s WALL (    2457 calls)
                                        0.00s GPU  (    2457 calls)
     dv_of_drho   :      1.89s CPU      2.23s WALL (      61 calls)
     mix_pot      :      1.36s CPU      5.85s WALL (      35 calls)
     ef_shift     :      0.04s CPU      0.05s WALL (       6 calls)
     ef_shift_wfc :      0.04s CPU      0.20s WALL (       1 calls)
     localdos     :      0.04s CPU      0.05s WALL (       1 calls)
     drhodv       :      0.22s CPU      0.45s WALL (       5 calls)
     psymdvscf    :      5.19s CPU      5.22s WALL (      35 calls)
 
     dvqpsi_us    :      0.99s CPU      1.03s WALL (     348 calls)
                                        0.00s GPU  (     348 calls)
     dvqpsi_us_on :      0.06s CPU      0.06s WALL (     348 calls)
 
     add_vuspsi   :      1.04s CPU      1.06s WALL (   81821 calls)
 
 
      General routines
     calbec       :      2.56s CPU      2.62s WALL (  163321 calls)
     fft          :      0.98s CPU      1.00s WALL (    1973 calls)
     ffts         :      0.12s CPU      0.13s WALL (     683 calls)
     fftw         :     58.06s CPU     59.24s WALL (  460414 calls)
     davcio       :      3.59s CPU     14.87s WALL (   12756 calls)
     write_rec    :      0.30s CPU      2.78s WALL (      40 calls)
 
      Additional routines
     ch_psi       :     72.31s CPU     73.61s WALL (   78929 calls)
     last         :      3.20s CPU      3.25s WALL (   78929 calls)
     Hesh         :      0.32s CPU      0.33s WALL (   78929 calls)
     ch_psi_all_k :      2.71s CPU      2.76s WALL (   78929 calls)
                                        0.00s GPU  (   78929 calls)
     ch_psi_calbe :      1.07s CPU      1.09s WALL (   78929 calls)
                                        0.00s GPU  (   78929 calls)
     h_psi_bgrp   :     73.79s CPU     75.08s WALL (   81821 calls)
     h_psi        :     73.69s CPU     74.98s WALL (   81821 calls)
     h_psi:pot    :     73.33s CPU     74.61s WALL (   81821 calls)
     h_psi:calbec :      1.56s CPU      1.58s WALL (   81821 calls)
     s_psi_bgrp   :      0.45s CPU      0.46s WALL (  160315 calls)
 
 
     PHONON       :   2m33.45s CPU   2m51.92s WALL

 
   This run was terminated on:   9:35:10   8Nov2023            

=------------------------------------------------------------------------------=
   JOB DONE.
=------------------------------------------------------------------------------=
