
     Program PWSCF v.7.2 starts on  8Nov2023 at  9: 6:45 

     This program is part of the open-source Quantum ESPRESSO suite
     for quantum simulation of materials; please cite
         "P. Giannozzi et al., J. Phys.:Condens. Matter 21 395502 (2009);
         "P. Giannozzi et al., J. Phys.:Condens. Matter 29 465901 (2017);
         "P. Giannozzi et al., J. Chem. Phys. 152 154105 (2020);
          URL http://www.quantum-espresso.org", 
     in publications or presentations arising from this work. More details at
     http://www.quantum-espresso.org/quote

     Parallel version (MPI), running on    16 processors

     MPI processes distributed on     1 nodes
     225665 MiB available memory on the printing compute node when the environment starts
 
     Waiting for input...
     Reading input from standard input
     Message from routine read_cards :
     DEPRECATED: no units specified in ATOMIC_POSITIONS card
     Message from routine read_cards :
     ATOMIC_POSITIONS: units set to alat

     Current dimensions of program PWSCF are:
     Max number of different atomic species (ntypx) = 10
     Max number of k-points (npk) =  40000
     Max angular momentum in pseudopotentials (lmaxx) =  4
     WARNING: atomic wfc #  5 for atom typeFe has zero norm
 
     K-points division:     npool     =      16
     Subspace diagonalization in iterative solution of the eigenvalue problem:
     a serial algorithm will be used

 
     G-vector sticks info
     --------------------
     sticks:   dense  smooth     PW     G-vecs:    dense   smooth      PW
     Sum        1335     797    241                30669    14171    2347
 
     Using Slab Decomposition
 


     bravais-lattice index     =            3
     lattice parameter (alat)  =       5.4235  a.u.
     unit-cell volume          =      79.7644 (a.u.)^3
     number of atoms/cell      =            1
     number of atomic types    =            1
     number of electrons       =         8.00
     number of Kohn-Sham states=            8
     kinetic-energy cutoff     =     120.0000  Ry
     charge density cutoff     =     800.0000  Ry
     scf convergence threshold =      1.0E-08
     mixing beta               =       0.7000
     number of iterations used =            8  plain     mixing
     Exchange-correlation=  SLA  PW   PBX  PBC
                           (   1   4   3   4   0   0   0)

     celldm(1)=   5.423500  celldm(2)=   0.000000  celldm(3)=   0.000000
     celldm(4)=   0.000000  celldm(5)=   0.000000  celldm(6)=   0.000000

     crystal axes: (cart. coord. in units of alat)
               a(1) = (   0.500000   0.500000   0.500000 )  
               a(2) = (  -0.500000   0.500000   0.500000 )  
               a(3) = (  -0.500000  -0.500000   0.500000 )  

     reciprocal axes: (cart. coord. in units 2 pi/alat)
               b(1) = (  1.000000  0.000000  1.000000 )  
               b(2) = ( -1.000000  1.000000  0.000000 )  
               b(3) = (  0.000000 -1.000000  1.000000 )  


     PseudoPot. # 1 for Fe read from file:
     ./Fe.jry.pbe.UPF
     MD5 check sum: 78c02686e98e189cfdefd3b0caba24c3
     Pseudo is Norm-conserving + core correction, Zval =  8.0
     Generated by new atomic code, or converted to UPF format
     Using radial grid of 1165 points,  2 beta functions with: 
                l(1) =   2
                l(2) =   1

     atomic species   valence    mass     pseudopotential
        Fe             8.00    55.85000     Fe( 1.00)

     Starting magnetic structure 
     atomic species   magnetization
        Fe          -1.000

     48 Sym. Ops., with inversion, found



   Cartesian axes

     site n.     atom                  positions (alat units)
         1           Fe  tau(   1) = (   0.0000000   0.0000000   0.0000000  )

     number of k points=   145  Marzari-Vanderbilt smearing, width (Ry)=  0.0200

     Number of k-points >= 100: set verbosity='high' to print them.

     Dense  grid:    30669 G-vectors     FFT dimensions: (  45,  45,  45)

     Smooth grid:    14171 G-vectors     FFT dimensions: (  36,  36,  36)

     Estimated max dynamical RAM per process >      37.46 MB

     Estimated total dynamical RAM >     374.74 MB
     Generating pointlists ...
     new r_m :   0.3572 (alat units)  1.9375 (a.u.) for type    1

     Initial potential from superposition of free atoms

     starting charge       7.9881, renormalised to       8.0000
     Starting wfcs are    9 randomized atomic wfcs

     total cpu time spent up to now is        0.4 secs

     Self-consistent Calculation

     iteration #  1     ecut=   120.00 Ry     beta= 0.70
     Davidson diagonalization with overlap
     ethr =  1.00E-02,  avg # of iterations =  4.3

     total cpu time spent up to now is        0.8 secs

     total energy              =     -59.09652578 Ry
     estimated scf accuracy    <       0.62245039 Ry

     total magnetization       =    -3.46 Bohr mag/cell
     absolute magnetization    =     3.47 Bohr mag/cell

     iteration #  2     ecut=   120.00 Ry     beta= 0.70
     Davidson diagonalization with overlap
     ethr =  7.78E-03,  avg # of iterations =  1.9

     total cpu time spent up to now is        1.1 secs

     total energy              =     -59.23396347 Ry
     estimated scf accuracy    <       0.49045621 Ry

     total magnetization       =    -2.72 Bohr mag/cell
     absolute magnetization    =     2.75 Bohr mag/cell

     iteration #  3     ecut=   120.00 Ry     beta= 0.70
     Davidson diagonalization with overlap
     ethr =  6.13E-03,  avg # of iterations =  1.3

     total cpu time spent up to now is        1.3 secs

     total energy              =     -59.35272476 Ry
     estimated scf accuracy    <       0.02605985 Ry

     total magnetization       =    -2.76 Bohr mag/cell
     absolute magnetization    =     2.84 Bohr mag/cell

     iteration #  4     ecut=   120.00 Ry     beta= 0.70
     Davidson diagonalization with overlap
     ethr =  3.26E-04,  avg # of iterations =  1.1

     total cpu time spent up to now is        1.6 secs

     total energy              =     -59.36167231 Ry
     estimated scf accuracy    <       0.00065474 Ry

     total magnetization       =    -2.41 Bohr mag/cell
     absolute magnetization    =     2.55 Bohr mag/cell

     iteration #  5     ecut=   120.00 Ry     beta= 0.70
     Davidson diagonalization with overlap
     ethr =  8.18E-06,  avg # of iterations =  3.4

     total cpu time spent up to now is        1.9 secs

     total energy              =     -59.36129595 Ry
     estimated scf accuracy    <       0.00034716 Ry

     total magnetization       =    -2.30 Bohr mag/cell
     absolute magnetization    =     2.45 Bohr mag/cell

     iteration #  6     ecut=   120.00 Ry     beta= 0.70
     Davidson diagonalization with overlap
     ethr =  4.34E-06,  avg # of iterations =  1.8

     total cpu time spent up to now is        2.2 secs

     total energy              =     -59.36262348 Ry
     estimated scf accuracy    <       0.00014606 Ry

     total magnetization       =    -2.18 Bohr mag/cell
     absolute magnetization    =     2.31 Bohr mag/cell

     iteration #  7     ecut=   120.00 Ry     beta= 0.70
     Davidson diagonalization with overlap
     ethr =  1.83E-06,  avg # of iterations =  1.1

     total cpu time spent up to now is        2.5 secs

     total energy              =     -59.36272189 Ry
     estimated scf accuracy    <       0.00000222 Ry

     total magnetization       =    -2.22 Bohr mag/cell
     absolute magnetization    =     2.35 Bohr mag/cell

     iteration #  8     ecut=   120.00 Ry     beta= 0.70
     Davidson diagonalization with overlap
     ethr =  2.78E-08,  avg # of iterations =  2.4

     total cpu time spent up to now is        2.8 secs

     total energy              =     -59.36272736 Ry
     estimated scf accuracy    <       0.00000185 Ry

     total magnetization       =    -2.21 Bohr mag/cell
     absolute magnetization    =     2.34 Bohr mag/cell

     iteration #  9     ecut=   120.00 Ry     beta= 0.70
     Davidson diagonalization with overlap
     ethr =  2.31E-08,  avg # of iterations =  1.1

     total cpu time spent up to now is        3.0 secs

     total energy              =     -59.36273043 Ry
     estimated scf accuracy    <       0.00000040 Ry

     total magnetization       =    -2.22 Bohr mag/cell
     absolute magnetization    =     2.34 Bohr mag/cell

     iteration # 10     ecut=   120.00 Ry     beta= 0.70
     Davidson diagonalization with overlap
     ethr =  5.05E-09,  avg # of iterations =  1.6

     total cpu time spent up to now is        3.3 secs

     total energy              =     -59.36273113 Ry
     estimated scf accuracy    <       0.00000004 Ry

     total magnetization       =    -2.22 Bohr mag/cell
     absolute magnetization    =     2.34 Bohr mag/cell

     iteration # 11     ecut=   120.00 Ry     beta= 0.70
     Davidson diagonalization with overlap
     ethr =  5.27E-10,  avg # of iterations =  1.1
 
     Magnetic moment per site  (integrated on atomic sphere of radius R)
     atom   1 (R=0.357)  charge=  6.4968  magn= -2.2676

     total cpu time spent up to now is        3.6 secs

     End of self-consistent calculation

     Number of k-points >= 100: set verbosity='high' to print the bands.

     the Fermi energy is    12.6256 ev

!    total energy              =     -59.36273117 Ry
     estimated scf accuracy    <          6.8E-11 Ry
     smearing contrib. (-TS)   =       0.00077379 Ry
     internal energy E=F+TS    =     -59.36350496 Ry

     The total energy is F=E-TS. E is the sum of the following terms:
     one-electron contribution =       5.26153174 Ry
     hartree contribution      =       7.76052529 Ry
     xc contribution           =     -29.44079555 Ry
     ewald contribution        =     -42.94476644 Ry

     total magnetization       =    -2.22 Bohr mag/cell
     absolute magnetization    =     2.34 Bohr mag/cell

     convergence has been achieved in  11 iterations

     Writing all to output data dir ./tmp/Fe.save/
 
     init_run     :      0.18s CPU      0.24s WALL (       1 calls)
     electrons    :      2.83s CPU      3.24s WALL (       1 calls)

     Called by init_run:
     wfcinit      :      0.08s CPU      0.08s WALL (       1 calls)
     potinit      :      0.05s CPU      0.07s WALL (       1 calls)
     hinit0       :      0.03s CPU      0.06s WALL (       1 calls)

     Called by electrons:
     c_bands      :      1.74s CPU      2.00s WALL (      11 calls)
     sum_band     :      0.41s CPU      0.42s WALL (      11 calls)
     v_of_rho     :      0.59s CPU      0.63s WALL (      12 calls)
     mix_rho      :      0.05s CPU      0.06s WALL (      11 calls)

     Called by c_bands:
     init_us_2    :      0.08s CPU      0.08s WALL (     437 calls)
     init_us_2:cp :      0.08s CPU      0.08s WALL (     437 calls)
     cegterg      :      1.54s CPU      1.55s WALL (     209 calls)

     Called by *egterg:
     cdiaghg      :      0.04s CPU      0.04s WALL (     703 calls)
     h_psi        :      1.43s CPU      1.45s WALL (     722 calls)
     g_psi        :      0.01s CPU      0.01s WALL (     494 calls)

     Called by h_psi:
     h_psi:calbec :      0.03s CPU      0.03s WALL (     722 calls)
     vloc_psi     :      1.39s CPU      1.40s WALL (     722 calls)
     add_vuspsi   :      0.01s CPU      0.01s WALL (     722 calls)

     General routines
     calbec       :      0.02s CPU      0.03s WALL (     722 calls)
     fft          :      0.13s CPU      0.15s WALL (     270 calls)
     ffts         :      0.01s CPU      0.01s WALL (      46 calls)
     fftw         :      1.27s CPU      1.29s WALL (    9972 calls)
     interpolate  :      0.02s CPU      0.02s WALL (      24 calls)
 
     Parallel routines
 
     PWSCF        :      3.13s CPU      4.36s WALL

 
   This run was terminated on:   9: 6:50   8Nov2023            

=------------------------------------------------------------------------------=
   JOB DONE.
=------------------------------------------------------------------------------=
